52
Energy= -198.08945 Cell Parameters:    7.77681   0.00000   0.00000   0.00000   7.77681   0.00000   0.00000   0.00000   7.77681
O        7.33427        3.26050        4.76120
N        6.27470        4.88374        3.56289
N        5.26803        3.97910        5.51113
N        3.22674        4.74537        6.18092
C        6.34045        3.97671        4.65442
C        5.23304        5.72024        3.34272
C        4.17273        5.71722        4.19654
C        4.25057        4.79925        5.29217
H        7.07358        4.86644        2.94428
H        5.29679        6.36568        2.47738
H        3.32967        6.37347        4.04454
H        2.41773        5.33138        6.09022
H        3.29775        4.09440        6.94520
O        1.60808        6.97992        4.33450
N        7.33255        0.01996        4.89501
N        0.57578        6.10687        6.21074
N        7.26436        5.30117        0.26948
C        0.66177        6.93347        5.11832
C        6.23653        0.05776        5.68910
C        6.15804        7.01190        6.77091
C        7.27828        6.14692        6.98539
H        7.41544        0.62008        4.08620
H        5.45804        0.75753        5.41752
H        5.29619        7.02156        7.42025
H        6.49041        5.26637        0.90658
H        0.28319        4.70000        0.40546
O        7.13550        0.57140        2.28131
N        1.41036        7.53081        1.71914
N        0.38908        1.44316        0.40342
N        1.47545        2.24760        6.34303
C        0.30417        0.61727        1.49645
C        2.50553        7.49240        0.92392
C        2.58295        0.53758        7.61833
C        1.46257        1.40253        7.40448
H        1.32826        6.93121        2.52842
H        3.28424        6.79273        1.19512
H        3.44412        0.52743        6.96808
H        2.24873        2.28192        5.70509
H        0.67972        2.84876        6.20751
O        1.40857        4.29069        1.85118
N        2.46912        2.67030        3.05247
N        3.47450        3.57079        1.10163
N        5.51553        2.80338        0.43236
C        2.40258        3.57490        1.95897
C        3.51107        1.83448        3.27389
C        4.57087        1.83578        2.41945
C        4.49223        2.75130        1.32183
H        1.67060        2.68884        3.67151
H        3.44793        1.19095        4.14070
H        5.41414        1.18002        2.57241
H        6.32469        2.21772        0.52388
H        5.44396        3.45265        7.44349
