50
Energy= -12.99491 Cell Parameters:   5.63283  -5.99154   0.00000   5.63283   5.99154   0.00000   7.87749   0.00000   7.53981
Mg      7.0411857     -0.0634448      2.3291145
B      4.9152274     -1.2747848      1.5093479
B      8.2925359      1.5206064      0.7216433
B      7.5280635      0.0615511      4.8601985
H      3.8206461     -0.7290821      1.5727722
H      7.8743359      2.6513905      0.5063336
H      7.0418642      0.9510384      5.5474719
H      4.8329833     -2.3873565      0.9994956
H      8.1996629     -0.7111029      5.5358388
H      5.6460639     -0.6200439      0.7635962
H      8.5716373      1.4182712      1.9177134
H      6.6175408     -0.6184685      4.3832536
H      5.3850114     -1.3777748      2.6385040
H      7.4472124      0.7009416      0.3754109
H      8.2340686      0.5600064      3.9887650
H      4.8558318      1.2457440      2.9702564
H      5.6587491      2.1113748      1.8193712
H      6.1548704      2.1700216      3.3906625
H      8.6146138     -1.8814294      0.9723839
H      9.2688391     -1.6868603      2.4825496
H      7.9510715     -2.6692370      2.2706684
N      5.8015335      1.5278241      2.6611312
N      8.3734325     -1.7735719      1.9722982
H      9.3385594      1.3065935      0.1178521
Mg     12.0054832     -0.2994232      4.8727729
B     11.2421884      1.5120480      6.5446025
B     11.2910310     -0.1184893      2.3997424
B     13.9435584     -1.8770449      5.5162276
H     11.8825312      2.5470901      6.6808791
H     11.8597880      0.6549967      1.6393759
H     15.1077234     -1.5471192      5.3270422
H     10.2427882      1.5058670      7.2557215
H     13.8706519     -2.9785386      6.0509482
H     10.8267747      1.4482145      5.3860214
H     12.1042497     -0.9508632      2.8056768
H     13.4277236     -1.0871893      6.3093209
H     11.9523128      0.5530312      6.8314952
H     10.7835222      0.5148551      3.3203991
H     13.3486005     -1.9048951      4.4431261
H     13.8119026      1.5841176      5.1726616
H     13.1754058      1.7141766      3.6572456
H     14.3172239      0.5683145      3.9762812
H      9.5120344     -1.4782544      4.9933234
H     10.6398289     -2.6874194      5.1049846
H     10.2715482     -1.7722568      6.4366437
N     13.4772449      1.0267223      4.3684266
N     10.4237897     -1.7246237      5.4147909
H     10.4217561     -0.7602976      1.8192478
Li     13.6638006     -4.0121954      7.4095258
Li      9.6437544      2.3120964      3.7345360
