50
Energy= -12.99519 Cell Parameters:   3.99305  -6.92631   0.00000   3.99305   6.92631   0.00000   0.00000   0.00000   8.69667
Mg      4.0610249     -2.2666307      2.4664857
B      2.1756759     -0.5158668      2.2681263
B      3.4889551     -4.7720305      2.2324628
B      6.5183909     -1.5066534      2.2594913
H      1.8285175     -0.0919188      1.1728312
H      3.3031853     -5.2707952      1.1294462
H      7.0510472     -1.4042994      1.1614371
H      1.5032360     -0.0292985      3.1712348
H      7.2826215     -1.1788070      3.1611554
H      1.9646847     -1.7293136      2.3126567
H      4.6449746     -4.3487128      2.2905537
H      5.5733761     -0.7178939      2.3208083
H      3.3592932     -0.2483494      2.4519248
H      2.6641690     -3.8830720      2.4216183
H      6.1596037     -2.6676822      2.4314832
H      3.8556385     -1.3166535      0.0259591
H      3.3583954     -2.8886292      0.0128681
H      4.9684358     -2.5332506      0.0157041
H      3.2766668     -2.8359104      5.0514741
H      4.9278158     -2.6938742      5.0525245
H      3.9792318     -1.3350045      5.0639544
N      4.0608563     -2.2495537      0.4222700
N      4.0612061     -2.2849832      4.6633920
H      3.3973881     -5.6089740      3.1244670
Mg      4.0485275      2.3086764      6.0675761
B      4.6123636      4.8207073      5.8919322
B      1.5905984      1.5481966      5.8692987
B      5.9352796      0.5683252      5.8022386
H      4.7842534      5.3482981      4.8001336
H      1.0454851      1.4729559      4.7751723
H      6.2706558      0.1737168      4.6924056
H      4.7124249      5.6345211      6.8041954
H      6.6191984      0.0602330      6.6846371
H      3.4580239      4.3931536      5.9523575
H      2.5379838      0.7604682      5.8992783
H      6.1441162      1.7807356      5.8757418
H      5.4412275      3.9292076      6.0484896
H      1.9488111      2.7052777      6.0671520
H      4.7544590      0.2931986      5.9926733
H      4.7213285      2.9956822      3.6229551
H      3.1122114      2.6363449      3.6351380
H      4.2277125      1.4226610      3.6010642
H      3.2108127      2.6667247      8.6736262
H      4.1624382      1.3103788      8.6389349
H      4.8615251      2.8128474      8.6572301
N      4.0250568      2.3444845      4.0237375
N      4.0737514      2.2701937      8.2640772
H      0.8375818      1.1952349      6.7709164
Li      0.0658711      0.0075002      8.3729810
Li      0.0846900     -0.0140123      4.0700628
