
     Program PWSCF v.5.4.0 starts on 15Jan2017 at  0:55:20 

     This program is part of the open-source Quantum ESPRESSO suite
     for quantum simulation of materials; please cite
         "P. Giannozzi et al., J. Phys.:Condens. Matter 21 395502 (2009);
          URL http://www.quantum-espresso.org", 
     in publications or presentations arising from this work. More details at
     http://www.quantum-espresso.org/quote

     Parallel version (MPI), running on    32 processors
     R & G space division:  proc/nbgrp/npool/nimage =      32
     Waiting for input...
     Reading input from standard input

     Current dimensions of program PWSCF are:
     Max number of different atomic species (ntypx) = 10
     Max number of k-points (npk) =  40000
     Max angular momentum in pseudopotentials (lmaxx) =  3
               file Li.pbe-mt_fhi.UPF: wavefunction(s)  2p 4f renormalized
               file B.pbe-mt_fhi.UPF: wavefunction(s)  4f renormalized
               file H.pbe-mt_fhi.UPF: wavefunction(s)  2p 4f renormalized
               file N.pbe-mt_fhi.UPF: wavefunction(s)  4f renormalized
               file Mg.pbe-mt_fhi.UPF: wavefunction(s)  3p 4f renormalized

     Subspace diagonalization in iterative solution of the eigenvalue problem:
     one sub-group per band group will be used
     scalapack distributed-memory algorithm (size of sub-group:  4*  4 procs)

 
     Parallelization info
     --------------------
     sticks:   dense  smooth     PW     G-vecs:    dense   smooth      PW
     Min         152     152     40                 9162     9162    1268
     Max         153     153     41                 9167     9167    1275
     Sum        4879    4879   1285               293257   293257   40679
 


     bravais-lattice index     =            0
     lattice parameter (alat)  =      14.8642  a.u.
     unit-cell volume          =    3035.3068 (a.u.)^3
     number of atoms/cell      =           50
     number of atomic types    =            5
     number of electrons       =        80.00
     number of Kohn-Sham states=           48
     kinetic-energy cutoff     =      80.0000  Ry
     charge density cutoff     =     320.0000  Ry
     convergence threshold     =      1.0E-08
     mixing beta               =       0.8000
     number of iterations used =            8  plain     mixing
     Exchange-correlation      = PBE ( 1  4  3  4 0 0)
     nstep                     =         9000


     celldm(1)=  14.864207  celldm(2)=   0.000000  celldm(3)=   0.000000
     celldm(4)=   0.000000  celldm(5)=   0.000000  celldm(6)=   0.000000

     crystal axes: (cart. coord. in units of alat)
               a(1) = (   1.000000   0.000000   0.000000 )  
               a(2) = (  -0.500000   0.866025   0.000000 )  
               a(3) = (   0.000000   0.000000   1.067202 )  

     reciprocal axes: (cart. coord. in units 2 pi/alat)
               b(1) = (  1.000000  0.577350  0.000000 )  
               b(2) = (  0.000000  1.154701  0.000000 )  
               b(3) = (  0.000000  0.000000  0.937029 )  


     PseudoPot. # 1 for Li read from file:
     /ORTAK/progs/QuantumESPRESSO/pseudo/Li.pbe-mt_fhi.UPF
     MD5 check sum: b65a6db51c5b36e0de52eaff8082552c
     Pseudo is Norm-conserving + core correction, Zval =  1.0
     Generated using FHI98PP, converted with fhi2upf.x v.5.0.2
     Using radial grid of  433 points,  3 beta functions with: 
                l(1) =   0
                l(2) =   1
                l(3) =   3

     PseudoPot. # 2 for  B read from file:
     /ORTAK/progs/QuantumESPRESSO/pseudo/B.pbe-mt_fhi.UPF
     MD5 check sum: 3ba04917d1d3a8de85490f79a9c37fe5
     Pseudo is Norm-conserving + core correction, Zval =  3.0
     Generated using FHI98PP, converted with fhi2upf.x v.5.0.2
     Using radial grid of  453 points,  3 beta functions with: 
                l(1) =   0
                l(2) =   1
                l(3) =   3

     PseudoPot. # 3 for  H read from file:
     /ORTAK/progs/QuantumESPRESSO/pseudo/H.pbe-mt_fhi.UPF
     MD5 check sum: a19bd5488733b3d98581df861506e80d
     Pseudo is Norm-conserving, Zval =  1.0
     Generated using FHI98PP, converted with fhi2upf.x v.5.0.2
     Using radial grid of  387 points,  3 beta functions with: 
                l(1) =   0
                l(2) =   1
                l(3) =   3

     PseudoPot. # 4 for  N read from file:
     /ORTAK/progs/QuantumESPRESSO/pseudo/N.pbe-mt_fhi.UPF
     MD5 check sum: e15e723d2596c7aaeca87f2bd8795892
     Pseudo is Norm-conserving, Zval =  5.0
     Generated using FHI98PP, converted with fhi2upf.x v.5.0.2
     Using radial grid of  467 points,  3 beta functions with: 
                l(1) =   0
                l(2) =   1
                l(3) =   3

     PseudoPot. # 5 for Mg read from file:
     /ORTAK/progs/QuantumESPRESSO/pseudo/Mg.pbe-mt_fhi.UPF
     MD5 check sum: 3897899eb5a4c751d6dca7253808c53d
     Pseudo is Norm-conserving + core correction, Zval =  2.0
     Generated using FHI98PP, converted with fhi2upf.x v.5.0.2
     Using radial grid of  489 points,  3 beta functions with: 
                l(1) =   0
                l(2) =   1
                l(3) =   3

     atomic species   valence    mass     pseudopotential
        Li             1.00     6.94100     Li( 1.00)
        B              3.00    10.81100      B( 1.00)
        H              1.00     1.00790      H( 1.00)
        N              5.00    14.00670      N( 1.00)
        Mg             2.00    24.30500     Mg( 1.00)

      6 Sym. Ops. (no inversion) found ( 3 have fractional translation)



   Cartesian axes

     site n.     atom                  positions (alat units)
         1           B   tau(   1) = (   0.3990701   0.5996534   0.4931329  )
         2           B   tau(   2) = (   0.2811500   0.0457781   0.4931329  )
         3           B   tau(   3) = (   0.8197800   0.2205940   0.4931329  )
         4           B   tau(   4) = (   0.1009300   0.2663721   1.0267340  )
         5           B   tau(   5) = (   0.2188500   0.8202473   1.0267340  )
         6           B   tau(   6) = (  -0.3197800   0.6454315   1.0267340  )
         7           H   tau(   7) = (   0.3862400   0.6672033   0.3534361  )
         8           H   tau(   8) = (   0.2290650   0.0008920   0.3534361  )
         9           H   tau(   9) = (   0.8846951   0.1979301   0.3534361  )
        10           H   tau(  10) = (   0.1137600   0.1988221   0.8870372  )
        11           H   tau(  11) = (   0.2709350   0.8651335   0.8870372  )
        12           H   tau(  12) = (  -0.3846950   0.6680953   0.8870372  )
        13           H   tau(  13) = (   0.3550250   0.6961719   0.6074196  )
        14           H   tau(  14) = (  -0.2804150   0.8254002   0.6074196  )
        15           H   tau(  15) = (  -0.0746100   0.2104788   0.6074196  )
        16           H   tau(  16) = (   0.1449750   0.1698536   0.0738184  )
        17           H   tau(  17) = (   0.7804150   0.0406253   0.0738184  )
        18           H   tau(  18) = (   0.5746100   0.6555466   0.0738184  )
        19           H   tau(  19) = (   0.3004900   0.4780634   0.5000803  )
        20           H   tau(  20) = (   0.4357400   0.0212003   0.5000803  )
        21           H   tau(  21) = (   0.7637701   0.3667618   0.5000803  )
        22           H   tau(  22) = (   0.1995100   0.3879621   1.0336816  )
        23           H   tau(  23) = (   0.0642600   0.8448252   1.0336816  )
        24           H   tau(  24) = (  -0.2637700   0.4992637   1.0336816  )
        25           H   tau(  25) = (   0.5471351   0.5561875   0.5162271  )
        26           H   tau(  26) = (   0.2447600   0.1957391   0.5162271  )
        27           H   tau(  27) = (   0.7081050   0.1140988   0.5162271  )
        28           H   tau(  28) = (  -0.0471350   0.3098380   1.0498283  )
        29           H   tau(  29) = (   0.2552400   0.6702864   1.0498283  )
        30           H   tau(  30) = (  -0.2081050   0.7519266   1.0498283  )
        31           H   tau(  31) = (   0.5348150   0.4045811   0.2089582  )
        32           H   tau(  32) = (   0.3822150   0.2608729   0.2089582  )
        33           H   tau(  33) = (   0.5829700   0.2005715   0.2089582  )
        34           H   tau(  34) = (  -0.0348150   0.4614443   0.7425594  )
        35           H   tau(  35) = (   0.1177850   0.6051526   0.7425594  )
        36           H   tau(  36) = (  -0.0829700   0.6654540   0.7425594  )
        37           H   tau(  37) = (   0.3789701   0.2764873   0.8494504  )
        38           H   tau(  38) = (   0.5710700   0.1899540   0.8494504  )
        39           H   tau(  39) = (   0.5499600   0.3995841   0.8494504  )
        40           H   tau(  40) = (   0.1210300   0.5895382   0.3158492  )
        41           H   tau(  41) = (  -0.0710700   0.6760714   0.3158492  )
        42           H   tau(  42) = (  -0.0499600   0.4664413   0.3158492  )
        43           Mg  tau(  43) = (   0.0000000   0.5773503   1.0538303  )
        44           Mg  tau(  44) = (   0.5000000   0.2886751   0.5202291  )
        45           Li  tau(  45) = (   0.0000000   0.0000000   0.7172667  )
        46           Li  tau(  46) = (   0.0000000   0.0000000   0.1836655  )
        47           N   tau(  47) = (   0.5000000   0.2886752   0.2603333  )
        48           N   tau(  48) = (   0.0000000   0.5773503   0.7939345  )
        49           N   tau(  49) = (   0.5000000   0.2886752   0.7995373  )
        50           N   tau(  50) = (   0.0000000   0.5773503   0.2659361  )

     number of k points=     4  gaussian smearing, width (Ry)=  0.0050
                       cart. coord. in units 2pi/alat
        k(    1) = (   0.0000000   0.0000000   0.0000000), wk =   0.2500000
        k(    2) = (   0.0000000   0.0000000  -0.4685147), wk =   0.2500000
        k(    3) = (   0.0000000  -0.5773503   0.0000000), wk =   0.7500000
        k(    4) = (   0.0000000  -0.5773503  -0.4685147), wk =   0.7500000

     Dense  grid:   293257 G-vectors     FFT dimensions: (  90,  90,  96)

     Largest allocated arrays     est. size (Mb)     dimensions
        Kohn-Sham Wavefunctions         0.84 Mb     (    1152,   48)
        NL pseudopotentials             9.67 Mb     (    1152,  550)
        Each V/rho on FFT grid          0.37 Mb     (   24300)
        Each G-vector array             0.07 Mb     (    9167)
        G-vector shells                 0.07 Mb     (    9167)
     Largest temporary arrays     est. size (Mb)     dimensions
        Auxiliary wavefunctions         3.38 Mb     (    1152,  192)
        Each subspace H/S matrix        0.04 Mb     (      48,   48)
        Each <psi_i|beta_j> matrix      0.40 Mb     (     550,   48)
        Arrays for rho mixing           2.97 Mb     (   24300,    8)

     Initial potential from superposition of free atoms

     starting charge   79.98824, renormalised to   80.00000
     Starting wfc are  800 randomized atomic wfcs

     total cpu time spent up to now is       28.6 secs

     per-process dynamical memory:    62.3 Mb

     Self-consistent Calculation

     iteration #  1     ecut=    80.00 Ry     beta=0.80
     Davidson diagonalization with overlap
     ethr =  1.00E-02,  avg # of iterations =  2.0

     total cpu time spent up to now is       33.2 secs

     total energy              =    -168.82688369 Ry
     Harris-Foulkes estimate   =    -172.32051998 Ry
     estimated scf accuracy    <       5.32900499 Ry

     iteration #  2     ecut=    80.00 Ry     beta=0.80
     Davidson diagonalization with overlap
     ethr =  6.66E-03,  avg # of iterations =  2.0

     total cpu time spent up to now is       37.6 secs

     total energy              =    -169.72423271 Ry
     Harris-Foulkes estimate   =    -171.49889870 Ry
     estimated scf accuracy    <       3.21197881 Ry

     iteration #  3     ecut=    80.00 Ry     beta=0.80
     Davidson diagonalization with overlap
     ethr =  4.01E-03,  avg # of iterations =  2.0

     total cpu time spent up to now is       46.2 secs

     total energy              =    -170.43267452 Ry
     Harris-Foulkes estimate   =    -170.50634759 Ry
     estimated scf accuracy    <       0.12480768 Ry

     iteration #  4     ecut=    80.00 Ry     beta=0.80
     Davidson diagonalization with overlap
     ethr =  1.56E-04,  avg # of iterations =  4.0

     total cpu time spent up to now is       51.6 secs

     total energy              =    -170.47217876 Ry
     Harris-Foulkes estimate   =    -170.48886131 Ry
     estimated scf accuracy    <       0.03326924 Ry

     iteration #  5     ecut=    80.00 Ry     beta=0.80
     Davidson diagonalization with overlap
     ethr =  4.16E-05,  avg # of iterations =  2.8

     total cpu time spent up to now is       56.2 secs

     total energy              =    -170.47845725 Ry
     Harris-Foulkes estimate   =    -170.47855169 Ry
     estimated scf accuracy    <       0.00028585 Ry

     iteration #  6     ecut=    80.00 Ry     beta=0.80
     Davidson diagonalization with overlap
     ethr =  3.57E-07,  avg # of iterations =  8.2

     total cpu time spent up to now is       64.2 secs

     total energy              =    -170.47862422 Ry
     Harris-Foulkes estimate   =    -170.47868955 Ry
     estimated scf accuracy    <       0.00014192 Ry

     iteration #  7     ecut=    80.00 Ry     beta=0.80
     Davidson diagonalization with overlap
     ethr =  1.77E-07,  avg # of iterations =  2.0

     total cpu time spent up to now is       68.2 secs

     total energy              =    -170.47864221 Ry
     Harris-Foulkes estimate   =    -170.47864657 Ry
     estimated scf accuracy    <       0.00001229 Ry

     iteration #  8     ecut=    80.00 Ry     beta=0.80
     Davidson diagonalization with overlap
     ethr =  1.54E-08,  avg # of iterations =  2.0

     total cpu time spent up to now is       75.2 secs

     total energy              =    -170.47864400 Ry
     Harris-Foulkes estimate   =    -170.47864403 Ry
     estimated scf accuracy    <       0.00000056 Ry

     iteration #  9     ecut=    80.00 Ry     beta=0.80
     Davidson diagonalization with overlap
     ethr =  7.02E-10,  avg # of iterations =  2.8

     total cpu time spent up to now is       80.0 secs

     total energy              =    -170.47864418 Ry
     Harris-Foulkes estimate   =    -170.47864425 Ry
     estimated scf accuracy    <       0.00000015 Ry

     iteration # 10     ecut=    80.00 Ry     beta=0.80
     Davidson diagonalization with overlap
     ethr =  1.91E-10,  avg # of iterations =  2.0

     total cpu time spent up to now is       84.2 secs

     total energy              =    -170.47864420 Ry
     Harris-Foulkes estimate   =    -170.47864421 Ry
     estimated scf accuracy    <       0.00000002 Ry

     iteration # 11     ecut=    80.00 Ry     beta=0.80
     Davidson diagonalization with overlap
     ethr =  2.65E-11,  avg # of iterations =  2.0

     total cpu time spent up to now is       88.2 secs

     End of self-consistent calculation

          k = 0.0000 0.0000 0.0000 ( 36537 PWs)   bands (ev):

   -17.6242 -17.6144 -17.4030 -17.3999  -8.8772  -8.7451  -8.4551  -8.4551
    -8.4396  -8.4396  -7.6447  -7.6447  -7.5797  -7.5797  -7.2942  -7.2942
    -7.2887  -7.2887  -5.0717  -4.8176  -4.2022  -4.1590  -4.1590  -3.9602
    -3.9030  -3.9030  -3.7389  -3.5922  -3.4130  -3.4130  -3.0624  -2.8359
    -2.7855  -2.7750  -2.7750  -2.7401  -2.7401  -2.7163  -2.7163  -2.4745
     3.5913   4.3873   4.5561   5.1903   5.1903   5.3774   5.5124   5.5838

          k = 0.0000 0.0000-0.4685 ( 36658 PWs)   bands (ev):

   -17.6170 -17.6170 -17.4041 -17.4041  -8.8104  -8.8104  -8.4636  -8.4636
    -8.3988  -8.3988  -7.7288  -7.7288  -7.5932  -7.5932  -7.2930  -7.2930
    -7.2325  -7.2325  -4.9611  -4.9611  -4.1280  -4.1280  -4.0603  -4.0603
    -4.0289  -4.0289  -3.4128  -3.4128  -3.1540  -3.1540  -3.1206  -3.1206
    -3.0791  -3.0791  -2.7150  -2.7150  -2.6966  -2.6966  -2.6552  -2.6552
     4.1154   4.1154   5.0503   5.0503   5.0726   5.0726   5.2325   5.2325

          k = 0.0000-0.5774 0.0000 ( 36682 PWs)   bands (ev):

   -17.6201 -17.6168 -17.4028 -17.4018  -8.9250  -8.7125  -8.5988  -8.4886
    -8.3840  -8.1730  -7.6497  -7.6296  -7.5774  -7.5310  -7.5066  -7.4854
    -7.3013  -7.2169  -4.9811  -4.7129  -4.2189  -4.0121  -3.9477  -3.8541
    -3.8071  -3.6541  -3.5806  -3.5211  -3.4451  -3.3227  -3.2308  -3.1274
    -3.1119  -3.0683  -2.9402  -2.8526  -2.6928  -2.6781  -2.6260  -2.6058
     4.2298   4.4540   4.6317   4.7890   4.9538   4.9984   5.2141   5.2470

          k = 0.0000-0.5774-0.4685 ( 36672 PWs)   bands (ev):

   -17.6160 -17.6160 -17.4050 -17.4050  -8.7558  -8.7557  -8.5655  -8.5655
    -8.4018  -8.4018  -7.6077  -7.6077  -7.5007  -7.5007  -7.4142  -7.4142
    -7.3367  -7.3367  -4.8102  -4.8102  -4.2379  -4.2379  -3.8754  -3.8754
    -3.6855  -3.6855  -3.5644  -3.5644  -3.4129  -3.4129  -3.1952  -3.1952
    -2.9160  -2.9160  -2.8663  -2.8663  -2.8347  -2.8346  -2.6126  -2.6126
     4.3903   4.3903   4.6282   4.6282   4.9341   4.9341   5.2977   5.2977

     the Fermi energy is    -0.1502 ev

!    total energy              =    -170.47864421 Ry
     Harris-Foulkes estimate   =    -170.47864421 Ry
     estimated scf accuracy    <          1.0E-09 Ry

     The total energy is the sum of the following terms:

     one-electron contribution =     -95.26865199 Ry
     hartree contribution      =      69.00809827 Ry
     xc contribution           =     -71.38251182 Ry
     ewald contribution        =     -72.83557867 Ry
     smearing contrib. (-TS)   =      -0.00000000 Ry

     convergence has been achieved in  11 iterations

     Forces acting on atoms (Ry/au):

     atom    1 type  2   force =     0.00005982    0.00078454    0.00758427
     atom    2 type  2   force =    -0.00070934   -0.00034046    0.00758427
     atom    3 type  2   force =     0.00064952   -0.00044408    0.00758427
     atom    4 type  2   force =    -0.00005982   -0.00078454    0.00758427
     atom    5 type  2   force =     0.00070934    0.00034046    0.00758427
     atom    6 type  2   force =    -0.00064952    0.00044408    0.00758427
     atom    7 type  3   force =     0.00035588   -0.00142327    0.00289694
     atom    8 type  3   force =     0.00105465    0.00101984    0.00289694
     atom    9 type  3   force =    -0.00141053    0.00040344    0.00289694
     atom   10 type  3   force =    -0.00035588    0.00142327    0.00289694
     atom   11 type  3   force =    -0.00105465   -0.00101984    0.00289694
     atom   12 type  3   force =     0.00141053   -0.00040344    0.00289694
     atom   13 type  3   force =     0.00141411   -0.00152366   -0.00199441
     atom   14 type  3   force =     0.00061247    0.00198648   -0.00199441
     atom   15 type  3   force =    -0.00202658   -0.00046283   -0.00199441
     atom   16 type  3   force =    -0.00141411    0.00152366   -0.00199441
     atom   17 type  3   force =    -0.00061247   -0.00198648   -0.00199441
     atom   18 type  3   force =     0.00202658    0.00046283   -0.00199441
     atom   19 type  3   force =     0.00280549    0.00174221   -0.00002258
     atom   20 type  3   force =    -0.00291154    0.00155852   -0.00002258
     atom   21 type  3   force =     0.00010606   -0.00330073   -0.00002258
     atom   22 type  3   force =    -0.00280549   -0.00174221   -0.00002258
     atom   23 type  3   force =     0.00291154   -0.00155852   -0.00002258
     atom   24 type  3   force =    -0.00010606    0.00330073   -0.00002258
     atom   25 type  3   force =    -0.00324680   -0.00029169   -0.00041882
     atom   26 type  3   force =     0.00187601   -0.00266597   -0.00041882
     atom   27 type  3   force =     0.00137079    0.00295765   -0.00041882
     atom   28 type  3   force =     0.00324680    0.00029169   -0.00041882
     atom   29 type  3   force =    -0.00187601    0.00266597   -0.00041882
     atom   30 type  3   force =    -0.00137079   -0.00295765   -0.00041882
     atom   31 type  3   force =    -0.00544924   -0.01818394    0.00672186
     atom   32 type  3   force =     0.01847238    0.00437279    0.00672186
     atom   33 type  3   force =    -0.01302314    0.01381115    0.00672186
     atom   34 type  3   force =     0.00544924    0.01818394    0.00672186
     atom   35 type  3   force =    -0.01847238   -0.00437279    0.00672186
     atom   36 type  3   force =     0.01302314   -0.01381115    0.00672186
     atom   37 type  3   force =     0.01876167    0.00192290   -0.00631969
     atom   38 type  3   force =    -0.01104612    0.01528663   -0.00631969
     atom   39 type  3   force =    -0.00771555   -0.01720953   -0.00631969
     atom   40 type  3   force =    -0.01876167   -0.00192290   -0.00631969
     atom   41 type  3   force =     0.01104612   -0.01528663   -0.00631969
     atom   42 type  3   force =     0.00771555    0.01720953   -0.00631969
     atom   43 type  5   force =     0.00000000    0.00000000    0.02688934
     atom   44 type  5   force =     0.00000000    0.00000000    0.02688934
     atom   45 type  1   force =     0.00000000    0.00000000   -0.00277562
     atom   46 type  1   force =     0.00000000    0.00000000   -0.00277562
     atom   47 type  4   force =     0.00000000    0.00000000   -0.05264321
     atom   48 type  4   force =    -0.00000000   -0.00000000   -0.05264321
     atom   49 type  4   force =     0.00000000    0.00000000    0.00318679
     atom   50 type  4   force =     0.00000000    0.00000000    0.00318679

     Total force =     0.111461     Total SCF correction =     0.000019


     entering subroutine stress ...

          total   stress  (Ry/bohr**3)                   (kbar)     P=  -15.31
  -0.00011532   0.00000000   0.00000000        -16.96      0.00      0.00
   0.00000000  -0.00011532   0.00000000          0.00    -16.96      0.00
   0.00000000   0.00000000  -0.00008151          0.00      0.00    -11.99


     BFGS Geometry Optimization

     number of scf cycles    =   1
     number of bfgs steps    =   0

     enthalpy new            =    -170.4786442055 Ry

     new trust radius        =       0.0526432087 bohr
     new conv_thr            =       0.0000000100 Ry

     new unit-cell volume =   3011.68124 a.u.^3 (   446.28511 Ang^3 )

CELL_PARAMETERS (bohr)
  14.821354031  -0.000000000   0.000000000
  -7.410677015  12.835669109   0.000000000
   0.000000000   0.000000000  15.830790778

ATOMIC_POSITIONS (angstrom)
B        3.129986955   4.703568823   3.874985253
B        2.204719689   0.358863806   3.874985253
B        6.429978240   1.729911356   3.874985253
B        0.791574673   2.088775162   8.063632232
B        1.716841938   6.433480180   8.063632232
B       -2.508416611   5.062432628   8.063632232
H        3.029515516   5.232206762   2.775922138
H        1.797141525   0.007534017   2.775922138
H        6.938027844   1.552603206   2.775922138
H        0.892046112   1.560137223   6.964568867
H        2.124420104   6.784809968   6.964568867
H       -3.016466216   5.239740779   6.964568867
H        2.785250707   5.459357751   4.767051138
H       -2.199006225   6.474762977   4.767051138
H       -0.586244481   1.650567242   4.767051138
H        1.136310922   1.332986234   0.578404160
H        6.120567853   0.317581008   0.578404160
H        4.507806109   5.141776743   0.578404160
H        2.358260362   3.750429098   3.925504178
H        3.416026201   0.167098834   3.925504178
H        5.990398321   2.874816054   3.925504178
H        1.563301266   3.041914887   8.114151406
H        0.505535427   6.625245152   8.114151406
H       -2.068836693   3.917527931   8.114151406
H        4.289534262   4.362092993   4.052043493
H        1.920672780   1.533799145   4.052043493
H        5.554477843   0.896451847   4.052043493
H       -0.367972634   2.430250992   8.240690471
H        2.000888849   5.258544840   8.240690471
H       -1.632916215   5.895892138   8.240690471
H        4.191744769   3.163584553   1.643824015
H        3.007506282   2.048365180   1.643824015
H        4.565433833   1.580394252   1.643824015
H       -0.270183141   3.628759433   5.832470993
H        0.914055346   4.743978805   5.832470993
H       -0.643872205   5.211949733   5.832470993
H        2.982208257   2.169538373   6.664653551
H        4.473143783   1.497898924   6.664653551
H        4.309332845   3.124906689   6.664653551
H        0.939353371   4.622805613   2.476006573
H       -0.551582155   5.294445061   2.476006573
H       -0.387771217   3.667437297   2.476006573
Mg       0.000000000   4.528229458   8.286526454
Mg       3.921561395   2.264114527   4.097879476
Li       0.000000000   0.000000000   5.628913527
Li       0.000000000   0.000000000   1.440266549
N        3.921561745   2.264114730   2.015756233
N        0.000000000   4.528229053   6.204403212
N        3.921561745   2.264114730   6.277867575
N        0.000000000   4.528229053   2.089220596



     Writing output data file mgli.save
     NEW-OLD atomic charge density approx. for the potential
     extrapolated charge   79.37252, renormalised to   80.00000

     total cpu time spent up to now is      104.8 secs

     per-process dynamical memory:    64.2 Mb

     Self-consistent Calculation

     iteration #  1     ecut=    80.00 Ry     beta=0.80
     Davidson diagonalization with overlap
     ethr =  1.00E-06,  avg # of iterations =  4.8

     total cpu time spent up to now is      112.3 secs

     total energy              =    -170.46554080 Ry
     Harris-Foulkes estimate   =    -170.94647690 Ry
     estimated scf accuracy    <       0.02142839 Ry

     iteration #  2     ecut=    80.00 Ry     beta=0.80
     Davidson diagonalization with overlap
     ethr =  2.68E-05,  avg # of iterations =  3.2

     total cpu time spent up to now is      121.8 secs

     total energy              =    -170.47908278 Ry
     Harris-Foulkes estimate   =    -170.50545046 Ry
     estimated scf accuracy    <       0.06501203 Ry

     iteration #  3     ecut=    80.00 Ry     beta=0.80
     Davidson diagonalization with overlap
     ethr =  2.68E-05,  avg # of iterations =  3.0

     total cpu time spent up to now is      126.4 secs

     total energy              =    -170.48557431 Ry
     Harris-Foulkes estimate   =    -170.48668267 Ry
     estimated scf accuracy    <       0.00345915 Ry

     iteration #  4     ecut=    80.00 Ry     beta=0.80
     Davidson diagonalization with overlap
     ethr =  4.32E-06,  avg # of iterations =  2.2

     total cpu time spent up to now is      134.0 secs

     total energy              =    -170.48542659 Ry
     Harris-Foulkes estimate   =    -170.48583983 Ry
     estimated scf accuracy    <       0.00088815 Ry

     iteration #  5     ecut=    80.00 Ry     beta=0.80
     Davidson diagonalization with overlap
     ethr =  1.11E-06,  avg # of iterations =  2.0

     total cpu time spent up to now is      141.0 secs

     total energy              =    -170.48566111 Ry
     Harris-Foulkes estimate   =    -170.48566382 Ry
     estimated scf accuracy    <       0.00000803 Ry

     iteration #  6     ecut=    80.00 Ry     beta=0.80
     Davidson diagonalization with overlap
     ethr =  1.00E-08,  avg # of iterations =  2.8

     total cpu time spent up to now is      145.7 secs

     total energy              =    -170.48566273 Ry
     Harris-Foulkes estimate   =    -170.48566347 Ry
     estimated scf accuracy    <       0.00000165 Ry

     iteration #  7     ecut=    80.00 Ry     beta=0.80
     Davidson diagonalization with overlap
     ethr =  2.06E-09,  avg # of iterations =  3.0

     total cpu time spent up to now is      150.6 secs

     total energy              =    -170.48566273 Ry
     Harris-Foulkes estimate   =    -170.48566349 Ry
     estimated scf accuracy    <       0.00000154 Ry

     iteration #  8     ecut=    80.00 Ry     beta=0.80
     Davidson diagonalization with overlap
     ethr =  1.93E-09,  avg # of iterations =  2.0

     total cpu time spent up to now is      154.7 secs

     total energy              =    -170.48566300 Ry
     Harris-Foulkes estimate   =    -170.48566301 Ry
     estimated scf accuracy    <       0.00000003 Ry

     iteration #  9     ecut=    80.00 Ry     beta=0.80
     Davidson diagonalization with overlap
     ethr =  3.13E-11,  avg # of iterations =  3.0

     total cpu time spent up to now is      159.7 secs

     End of self-consistent calculation

          k = 0.0000 0.0000 0.0000 ( 36537 PWs)   bands (ev):

   -17.7599 -17.7497 -17.5643 -17.5605  -8.8849  -8.7489  -8.4861  -8.4861
    -8.4845  -8.4845  -7.7902  -7.7902  -7.7263  -7.7263  -7.4053  -7.4053
    -7.3798  -7.3798  -5.0100  -4.7636  -4.1889  -4.1535  -4.1535  -3.9437
    -3.9095  -3.9095  -3.6870  -3.5385  -3.3915  -3.3915  -3.0223  -2.8171
    -2.7583  -2.7583  -2.7551  -2.7229  -2.7229  -2.6965  -2.6965  -2.4545
     3.6834   4.4660   4.6691   5.2516   5.2516   5.4449   5.5914   5.6480

          k = 0.0000 0.0000-0.4695 ( 36658 PWs)   bands (ev):

   -17.7522 -17.7522 -17.5653 -17.5653  -8.8163  -8.8163  -8.5064  -8.5064
    -8.4256  -8.4256  -7.8899  -7.8899  -7.7097  -7.7097  -7.4215  -7.4215
    -7.3267  -7.3267  -4.9023  -4.9023  -4.1034  -4.1033  -4.0583  -4.0583
    -4.0335  -4.0335  -3.3849  -3.3849  -3.1028  -3.1028  -3.0994  -3.0994
    -3.0565  -3.0565  -2.6995  -2.6995  -2.6783  -2.6783  -2.6369  -2.6369
     4.2142   4.2142   5.1090   5.1090   5.1260   5.1260   5.2795   5.2795

          k =-0.0000-0.5790 0.0000 ( 36682 PWs)   bands (ev):

   -17.7556 -17.7522 -17.5640 -17.5627  -8.9498  -8.7399  -8.6228  -8.4974
    -8.3969  -8.1962  -7.8018  -7.7742  -7.7213  -7.6779  -7.6226  -7.5995
    -7.4168  -7.3165  -4.9272  -4.6491  -4.2141  -4.0041  -3.9031  -3.8182
    -3.7959  -3.6380  -3.5746  -3.5103  -3.4227  -3.3124  -3.2149  -3.0995
    -3.0927  -3.0453  -2.9170  -2.8241  -2.6642  -2.6501  -2.6094  -2.5930
     4.3292   4.5434   4.6965   4.8814   5.0156   5.1011   5.2933   5.3055

          k =-0.0000-0.5790-0.4695 ( 36672 PWs)   bands (ev):

   -17.7512 -17.7512 -17.5663 -17.5663  -8.7759  -8.7759  -8.5882  -8.5882
    -8.4320  -8.4320  -7.7600  -7.7600  -7.6423  -7.6423  -7.5240  -7.5240
    -7.4378  -7.4378  -4.7505  -4.7505  -4.2175  -4.2175  -3.8554  -3.8554
    -3.6681  -3.6681  -3.5490  -3.5490  -3.3965  -3.3965  -3.1792  -3.1792
    -2.8950  -2.8950  -2.8545  -2.8545  -2.7922  -2.7922  -2.5966  -2.5966
     4.4821   4.4821   4.7257   4.7257   4.9935   4.9935   5.3693   5.3693

     the Fermi energy is    -0.1360 ev

!    total energy              =    -170.48566300 Ry
     Harris-Foulkes estimate   =    -170.48566301 Ry
     estimated scf accuracy    <          9.4E-09 Ry

     The total energy is the sum of the following terms:

     one-electron contribution =     -96.23047873 Ry
     hartree contribution      =      69.55048346 Ry
     xc contribution           =     -71.61622760 Ry
     ewald contribution        =     -72.18944014 Ry
     smearing contrib. (-TS)   =      -0.00000000 Ry

     convergence has been achieved in   9 iterations

     Forces acting on atoms (Ry/au):

     atom    1 type  2   force =     0.00008387    0.00064009    0.00293712
     atom    2 type  2   force =    -0.00059627   -0.00024741    0.00293712
     atom    3 type  2   force =     0.00051240   -0.00039268    0.00293712
     atom    4 type  2   force =    -0.00008387   -0.00064009    0.00293712
     atom    5 type  2   force =     0.00059627    0.00024741    0.00293712
     atom    6 type  2   force =    -0.00051240    0.00039268    0.00293712
     atom    7 type  3   force =     0.00032662   -0.00089988    0.00217990
     atom    8 type  3   force =     0.00061600    0.00073280    0.00217990
     atom    9 type  3   force =    -0.00094263    0.00016707    0.00217990
     atom   10 type  3   force =    -0.00032662    0.00089988    0.00217990
     atom   11 type  3   force =    -0.00061600   -0.00073280    0.00217990
     atom   12 type  3   force =     0.00094263   -0.00016707    0.00217990
     atom   13 type  3   force =    -0.00000881    0.00147969    0.00182107
     atom   14 type  3   force =    -0.00127704   -0.00074747    0.00182107
     atom   15 type  3   force =     0.00128585   -0.00073222    0.00182107
     atom   16 type  3   force =     0.00000881   -0.00147969    0.00182107
     atom   17 type  3   force =     0.00127704    0.00074747    0.00182107
     atom   18 type  3   force =    -0.00128585    0.00073222    0.00182107
     atom   19 type  3   force =     0.00036880   -0.00086625    0.00049628
     atom   20 type  3   force =     0.00056579    0.00075252    0.00049628
     atom   21 type  3   force =    -0.00093459    0.00011373    0.00049628
     atom   22 type  3   force =    -0.00036880    0.00086625    0.00049628
     atom   23 type  3   force =    -0.00056579   -0.00075252    0.00049628
     atom   24 type  3   force =     0.00093459   -0.00011373    0.00049628
     atom   25 type  3   force =     0.00080355   -0.00113690    0.00042471
     atom   26 type  3   force =     0.00058280    0.00126435    0.00042471
     atom   27 type  3   force =    -0.00138636   -0.00012745    0.00042471
     atom   28 type  3   force =    -0.00080355    0.00113690    0.00042471
     atom   29 type  3   force =    -0.00058280   -0.00126435    0.00042471
     atom   30 type  3   force =     0.00138636    0.00012745    0.00042471
     atom   31 type  3   force =     0.00338279    0.01139725   -0.00832381
     atom   32 type  3   force =    -0.01156170   -0.00276904   -0.00832381
     atom   33 type  3   force =     0.00817891   -0.00862821   -0.00832381
     atom   34 type  3   force =    -0.00338279   -0.01139725   -0.00832381
     atom   35 type  3   force =     0.01156170    0.00276904   -0.00832381
     atom   36 type  3   force =    -0.00817891    0.00862821   -0.00832381
     atom   37 type  3   force =    -0.00067801   -0.00005956    0.00077704
     atom   38 type  3   force =     0.00039059   -0.00055739    0.00077704
     atom   39 type  3   force =     0.00028742    0.00061696    0.00077704
     atom   40 type  3   force =     0.00067801    0.00005956    0.00077704
     atom   41 type  3   force =    -0.00039059    0.00055739    0.00077704
     atom   42 type  3   force =    -0.00028742   -0.00061696    0.00077704
     atom   43 type  5   force =    -0.00000000   -0.00000000    0.01391381
     atom   44 type  5   force =    -0.00000000   -0.00000000    0.01391381
     atom   45 type  1   force =     0.00000000    0.00000000   -0.00248797
     atom   46 type  1   force =     0.00000000    0.00000000   -0.00248797
     atom   47 type  4   force =     0.00000000    0.00000000    0.00267353
     atom   48 type  4   force =     0.00000000    0.00000000    0.00267353
     atom   49 type  4   force =     0.00000000    0.00000000   -0.01503630
     atom   50 type  4   force =     0.00000000    0.00000000   -0.01503630

     Total force =     0.047718     Total SCF correction =     0.000073


     entering subroutine stress ...

          total   stress  (Ry/bohr**3)                   (kbar)     P=   -2.07
   0.00000224   0.00000000  -0.00000000          0.33      0.00     -0.00
  -0.00000000   0.00000224   0.00000000         -0.00      0.33      0.00
   0.00000000   0.00000000  -0.00004672          0.00      0.00     -6.87


     number of scf cycles    =   2
     number of bfgs steps    =   1

     enthalpy old            =    -170.4786442055 Ry
     enthalpy new            =    -170.4856630050 Ry

     CASE: enthalpy_new < enthalpy_old

     new trust radius        =       0.0166726293 bohr
     new conv_thr            =       0.0000000100 Ry

     new unit-cell volume =   3005.46458 a.u.^3 (   445.36390 Ang^3 )

CELL_PARAMETERS (bohr)
  14.816208328  -0.000000000  -0.000000000
  -7.408104164  12.831212800   0.000000000
  -0.000000000   0.000000000  15.809088514

ATOMIC_POSITIONS (angstrom)
B        3.128945912   4.702307978   3.871672021
B        2.203609145   0.358592658   3.871672021
B        6.428045343   1.729085171   3.871672021
B        0.791254222   2.087677829   8.054576828
B        1.716590988   6.431393150   8.054576828
B       -2.507845209   5.060900636   8.054576828
H        3.028650383   5.229843700   2.773401137
H        1.796897575   0.007966321   2.773401137
H        6.935052444   1.552175787   2.773401137
H        0.891549751   1.560142108   6.956305695
H        2.123302559   6.782019487   6.956305695
H       -3.014852310   5.237810020   6.956305695
H        2.784382466   5.458079381   4.761267347
H       -2.198826499   6.472292067   4.761267347
H       -0.585555967   1.649600168   4.761267347
H        1.135817667   1.331906426   0.578362541
H        6.119026632   0.317693741   0.578362541
H        4.505756101   5.140385640   0.578362541
H        2.357827593   3.748827774   3.920365462
H        3.414906384   0.167524706   3.920365462
H        5.987866424   2.873633328   3.920365462
H        1.562372541   3.041158033   8.103270518
H        0.505293750   6.622461101   8.103270518
H       -2.067666290   3.916352480   8.103270518
H        4.288203732   4.359997878   4.046667186
H        1.920429479   1.533694430   4.046667186
H        5.551967191   0.896293500   4.046667186
H       -0.368003598   2.429987930   8.229571992
H        1.999770655   5.256291378   8.229571992
H       -1.631767057   5.893692308   8.229571992
H        4.191556768   3.166768765   1.637961905
H        3.002119685   2.046610260   1.637961905
H        4.566923949   1.576606783   1.637961905
H       -0.271356634   3.623217043   5.820866711
H        0.918080448   4.743375548   5.820866711
H       -0.646723815   5.213379025   5.820866711
H        2.982206897   2.168896010   6.655439060
H        4.470977777   1.498218927   6.655439060
H        4.307415729   3.122870871   6.655439060
H        0.937993237   4.621089798   2.472534254
H       -0.550777643   5.291766881   2.472534254
H       -0.387215595   3.667114937   2.472534254
Mg      -0.000000000   4.526657340   8.283977223
Mg       3.920199901   2.263328468   4.101072417
Li       0.000000000   0.000000000   5.619769579
Li       0.000000000   0.000000000   1.436864773
N        3.920200251   2.263328670   2.010472526
N        0.000000000   4.526656935   6.193377333
N        3.920200251   2.263328670   6.262089942
N        0.000000000   4.526656935   2.079185135



     Writing output data file mgli.save
     NEW-OLD atomic charge density approx. for the potential
     extrapolated charge   79.83455, renormalised to   80.00000

     total cpu time spent up to now is      176.3 secs

     per-process dynamical memory:    64.2 Mb

     Self-consistent Calculation

     iteration #  1     ecut=    80.00 Ry     beta=0.80
     Davidson diagonalization with overlap
     ethr =  1.00E-06,  avg # of iterations =  4.0

     total cpu time spent up to now is      182.6 secs

     total energy              =    -170.48687794 Ry
     Harris-Foulkes estimate   =    -170.60730629 Ry
     estimated scf accuracy    <       0.00038508 Ry

     iteration #  2     ecut=    80.00 Ry     beta=0.80
     Davidson diagonalization with overlap
     ethr =  4.81E-07,  avg # of iterations =  3.0

     total cpu time spent up to now is      188.5 secs

     total energy              =    -170.48734729 Ry
     Harris-Foulkes estimate   =    -170.48796437 Ry
     estimated scf accuracy    <       0.00181341 Ry

     iteration #  3     ecut=    80.00 Ry     beta=0.80
     Davidson diagonalization with overlap
     ethr =  4.81E-07,  avg # of iterations =  2.8

     total cpu time spent up to now is      195.9 secs

     total energy              =    -170.48738187 Ry
     Harris-Foulkes estimate   =    -170.48748439 Ry
     estimated scf accuracy    <       0.00026132 Ry

     iteration #  4     ecut=    80.00 Ry     beta=0.80
     Davidson diagonalization with overlap
     ethr =  3.27E-07,  avg # of iterations =  2.0

     total cpu time spent up to now is      199.9 secs

     total energy              =    -170.48739671 Ry
     Harris-Foulkes estimate   =    -170.48741088 Ry
     estimated scf accuracy    <       0.00002718 Ry

     iteration #  5     ecut=    80.00 Ry     beta=0.80
     Davidson diagonalization with overlap
     ethr =  3.40E-08,  avg # of iterations =  2.0

     total cpu time spent up to now is      204.1 secs

     total energy              =    -170.48740432 Ry
     Harris-Foulkes estimate   =    -170.48740476 Ry
     estimated scf accuracy    <       0.00000077 Ry

     iteration #  6     ecut=    80.00 Ry     beta=0.80
     Davidson diagonalization with overlap
     ethr =  9.62E-10,  avg # of iterations =  3.0

     total cpu time spent up to now is      209.0 secs

     total energy              =    -170.48740454 Ry
     Harris-Foulkes estimate   =    -170.48740461 Ry
     estimated scf accuracy    <       0.00000014 Ry

     iteration #  7     ecut=    80.00 Ry     beta=0.80
     Davidson diagonalization with overlap
     ethr =  1.78E-10,  avg # of iterations =  2.2

     total cpu time spent up to now is      213.1 secs

     total energy              =    -170.48740456 Ry
     Harris-Foulkes estimate   =    -170.48740457 Ry
     estimated scf accuracy    <       0.00000001 Ry

     iteration #  8     ecut=    80.00 Ry     beta=0.80
     Davidson diagonalization with overlap
     ethr =  1.27E-11,  avg # of iterations =  2.0

     total cpu time spent up to now is      217.4 secs

     End of self-consistent calculation

          k = 0.0000 0.0000 0.0000 ( 36537 PWs)   bands (ev):

   -17.6888 -17.6722 -17.5807 -17.5708  -8.8810  -8.7448  -8.4724  -8.4724
    -8.4680  -8.4680  -7.7525  -7.7525  -7.6871  -7.6871  -7.3828  -7.3828
    -7.3620  -7.3620  -5.0084  -4.7629  -4.1839  -4.1483  -4.1483  -3.9689
    -3.9016  -3.9016  -3.7016  -3.5206  -3.3833  -3.3833  -3.0134  -2.8079
    -2.7516  -2.7516  -2.7466  -2.7178  -2.7178  -2.6869  -2.6869  -2.4452
     3.6953   4.4688   4.6796   5.2683   5.2683   5.4564   5.6038   5.6556

          k =-0.0000 0.0000-0.4701 ( 36658 PWs)   bands (ev):

   -17.6756 -17.6756 -17.5810 -17.5810  -8.8122  -8.8122  -8.4862  -8.4862
    -8.4177  -8.4177  -7.8377  -7.8377  -7.6955  -7.6955  -7.3813  -7.3813
    -7.3142  -7.3142  -4.8993  -4.8993  -4.1180  -4.1180  -4.0517  -4.0517
    -4.0261  -4.0261  -3.3811  -3.3811  -3.0916  -3.0916  -3.0907  -3.0907
    -3.0488  -3.0488  -2.6936  -2.6936  -2.6720  -2.6720  -2.6302  -2.6301
     4.2201   4.2201   5.1246   5.1246   5.1449   5.1449   5.2968   5.2968

          k =-0.0000-0.5792 0.0000 ( 36682 PWs)   bands (ev):

   -17.6818 -17.6762 -17.5790 -17.5755  -8.9422  -8.7303  -8.6133  -8.4902
    -8.3851  -8.1773  -7.7559  -7.7289  -7.6855  -7.6413  -7.6091  -7.5836
    -7.3940  -7.2944  -4.9281  -4.6470  -4.2148  -3.9980  -3.8989  -3.8221
    -3.8054  -3.6313  -3.5654  -3.5073  -3.4159  -3.3094  -3.2098  -3.0919
    -3.0850  -3.0381  -2.9078  -2.8148  -2.6559  -2.6418  -2.6008  -2.5846
     4.3402   4.5552   4.7072   4.8911   5.0263   5.1096   5.3038   5.3202

          k =-0.0000-0.5792-0.4701 ( 36672 PWs)   bands (ev):

   -17.6735 -17.6735 -17.5830 -17.5830  -8.7680  -8.7680  -8.5783  -8.5783
    -8.4177  -8.4177  -7.7156  -7.7156  -7.6031  -7.6031  -7.5056  -7.5056
    -7.4205  -7.4205  -4.7474  -4.7474  -4.2259  -4.2259  -3.8546  -3.8546
    -3.6597  -3.6597  -3.5439  -3.5439  -3.3901  -3.3901  -3.1722  -3.1722
    -2.8903  -2.8903  -2.8523  -2.8523  -2.7779  -2.7779  -2.5878  -2.5878
     4.4899   4.4899   4.7385   4.7385   5.0059   5.0059   5.3807   5.3807

     the Fermi energy is    -0.1125 ev

!    total energy              =    -170.48740457 Ry
     Harris-Foulkes estimate   =    -170.48740457 Ry
     estimated scf accuracy    <          8.8E-10 Ry

     The total energy is the sum of the following terms:

     one-electron contribution =     -95.82933244 Ry
     hartree contribution      =      69.38303957 Ry
     xc contribution           =     -71.60806246 Ry
     ewald contribution        =     -72.43304924 Ry
     smearing contrib. (-TS)   =      -0.00000000 Ry

     convergence has been achieved in   8 iterations

     Forces acting on atoms (Ry/au):

     atom    1 type  2   force =     0.00036388   -0.00037867    0.00218773
     atom    2 type  2   force =     0.00014599    0.00050447    0.00218773
     atom    3 type  2   force =    -0.00050988   -0.00012580    0.00218773
     atom    4 type  2   force =    -0.00036388    0.00037867    0.00218773
     atom    5 type  2   force =    -0.00014599   -0.00050447    0.00218773
     atom    6 type  2   force =     0.00050988    0.00012580    0.00218773
     atom    7 type  3   force =     0.00024973   -0.00045628    0.00133651
     atom    8 type  3   force =     0.00027028    0.00044441    0.00133651
     atom    9 type  3   force =    -0.00052001    0.00001187    0.00133651
     atom   10 type  3   force =    -0.00024973    0.00045628    0.00133651
     atom   11 type  3   force =    -0.00027028   -0.00044441    0.00133651
     atom   12 type  3   force =     0.00052001   -0.00001187    0.00133651
     atom   13 type  3   force =    -0.00035273    0.00212221    0.00290891
     atom   14 type  3   force =    -0.00166153   -0.00136658    0.00290891
     atom   15 type  3   force =     0.00201425   -0.00075564    0.00290891
     atom   16 type  3   force =     0.00035273   -0.00212221    0.00290891
     atom   17 type  3   force =     0.00166153    0.00136658    0.00290891
     atom   18 type  3   force =    -0.00201425    0.00075564    0.00290891
     atom   19 type  3   force =     0.00015341   -0.00085756    0.00071548
     atom   20 type  3   force =     0.00066597    0.00056163    0.00071548
     atom   21 type  3   force =    -0.00081937    0.00029593    0.00071548
     atom   22 type  3   force =    -0.00015341    0.00085756    0.00071548
     atom   23 type  3   force =    -0.00066597   -0.00056163    0.00071548
     atom   24 type  3   force =     0.00081937   -0.00029593    0.00071548
     atom   25 type  3   force =     0.00099932   -0.00099947    0.00066856
     atom   26 type  3   force =     0.00036591    0.00136517    0.00066856
     atom   27 type  3   force =    -0.00136523   -0.00036570    0.00066856
     atom   28 type  3   force =    -0.00099932    0.00099947    0.00066856
     atom   29 type  3   force =    -0.00036591   -0.00136517    0.00066856
     atom   30 type  3   force =     0.00136523    0.00036570    0.00066856
     atom   31 type  3   force =     0.00151736    0.00519514   -0.00619660
     atom   32 type  3   force =    -0.00525780   -0.00128349   -0.00619660
     atom   33 type  3   force =     0.00374044   -0.00391164   -0.00619660
     atom   34 type  3   force =    -0.00151736   -0.00519514   -0.00619660
     atom   35 type  3   force =     0.00525780    0.00128349   -0.00619660
     atom   36 type  3   force =    -0.00374044    0.00391164   -0.00619660
     atom   37 type  3   force =    -0.00001035    0.00003567   -0.00053559
     atom   38 type  3   force =    -0.00002571   -0.00002680   -0.00053559
     atom   39 type  3   force =     0.00003606   -0.00000887   -0.00053559
     atom   40 type  3   force =     0.00001035   -0.00003567   -0.00053559
     atom   41 type  3   force =     0.00002571    0.00002680   -0.00053559
     atom   42 type  3   force =    -0.00003606    0.00000887   -0.00053559
     atom   43 type  5   force =    -0.00000000   -0.00000000    0.00829543
     atom   44 type  5   force =    -0.00000000   -0.00000000    0.00829543
     atom   45 type  1   force =    -0.00000000    0.00000000   -0.00237788
     atom   46 type  1   force =    -0.00000000    0.00000000   -0.00237788
     atom   47 type  4   force =     0.00000000    0.00000000   -0.00141354
     atom   48 type  4   force =     0.00000000    0.00000000   -0.00141354
     atom   49 type  4   force =    -0.00000000    0.00000000   -0.00775897
     atom   50 type  4   force =     0.00000000    0.00000000   -0.00775897

     Total force =     0.028718     Total SCF correction =     0.000031


     entering subroutine stress ...

          total   stress  (Ry/bohr**3)                   (kbar)     P=   -2.67
  -0.00000702   0.00000000  -0.00000000         -1.03      0.00     -0.00
  -0.00000000  -0.00000702  -0.00000000         -0.00     -1.03     -0.00
  -0.00000000  -0.00000000  -0.00004033         -0.00     -0.00     -5.93


     number of scf cycles    =   3
     number of bfgs steps    =   2

     enthalpy old            =    -170.4856630050 Ry
     enthalpy new            =    -170.4874045655 Ry

     CASE: enthalpy_new < enthalpy_old

     new trust radius        =       0.0249746594 bohr
     new conv_thr            =       0.0000000083 Ry

     new unit-cell volume =   2993.87234 a.u.^3 (   443.64610 Ang^3 )

CELL_PARAMETERS (bohr)
  14.804477619  -0.000000000   0.000000000
  -7.402238809  12.821053708   0.000000000
  -0.000000000   0.000000000  15.773078723

ATOMIC_POSITIONS (angstrom)
B        3.126794084   4.698419623   3.865803465
B        2.201844850   0.358673298   3.865803465
B        6.422650031   1.727516926   3.865803465
B        0.790302238   2.086190224   8.039180492
B        1.715251471   6.425936550   8.039180492
B       -2.505553709   5.057092920   8.039180492
H        3.026540145   5.225065066   2.768770400
H        1.795883487   0.008528118   2.768770400
H        6.928865333   1.551016663   2.768770400
H        0.890556177   1.559544781   6.942147178
H        2.121212835   6.776081729   6.942147178
H       -3.011769011   5.233593184   6.942147178
H        2.782011810   5.455604463   4.752931278
H       -2.198601640   6.466100517   4.752931278
H       -0.583410169   1.647514715   4.752931278
H        1.135084511   1.329005385   0.579554253
H        6.115697962   0.318509330   0.579554253
H        4.500506491   5.137095132   0.579554253
H        2.356405255   3.745186511   3.912103475
H        3.412563354   0.168113557   3.912103475
H        5.982320355   2.871309779   3.912103475
H        1.560691067   3.039423335   8.085480750
H        0.504532967   6.616496290   8.085480750
H       -2.065224033   3.913300068   8.085480750
H        4.285450864   4.355524003   4.038030942
H        1.919472778   1.533547313   4.038030942
H        5.546365324   0.895538531   4.038030942
H       -0.368354542   2.429085844   8.211407967
H        1.997623544   5.251062534   8.211407967
H       -1.629269002   5.889071316   8.211407967
H        4.189439881   3.168397569   1.628554530
H        2.995559919   2.043962580   1.628554530
H        4.566289166   1.572249698   1.628554530
H       -0.272343559   3.616212278   5.801931556
H        0.921536403   4.740647268   5.801931556
H       -0.649192844   5.212360149   5.801931556
H        2.981536656   2.167384559   6.639323620
H        4.466414228   1.498394207   6.639323620
H        4.303338082   3.118831082   6.639323620
H        0.935559666   4.617225288   2.465946594
H       -0.549317906   5.286215641   2.465946594
H       -0.386241760   3.665778766   2.465946594
Mg       0.000000000   4.523073366   8.276471405
Mg       3.917096089   2.261536481   4.103094380
Li       0.000000000   0.000000000   5.604371690
Li       0.000000000   0.000000000   1.430994665
N        3.917096438   2.261536684   2.000031773
N        0.000000000   4.523072962   6.173408799
N        3.917096438   2.261536684   6.239633292
N        0.000000000   4.523072962   2.066256265



     Writing output data file mgli.save
     NEW-OLD atomic charge density approx. for the potential
     extrapolated charge   79.69029, renormalised to   80.00000

     total cpu time spent up to now is      234.0 secs

     per-process dynamical memory:    64.2 Mb

     Self-consistent Calculation

     iteration #  1     ecut=    80.00 Ry     beta=0.80
     Davidson diagonalization with overlap
     ethr =  1.00E-06,  avg # of iterations =  4.0

     total cpu time spent up to now is      240.6 secs

     total energy              =    -170.48657252 Ry
     Harris-Foulkes estimate   =    -170.71182445 Ry
     estimated scf accuracy    <       0.00152913 Ry

     iteration #  2     ecut=    80.00 Ry     beta=0.80
     Davidson diagonalization with overlap
     ethr =  1.91E-06,  avg # of iterations =  3.8

     total cpu time spent up to now is      246.9 secs

     total energy              =    -170.48853860 Ry
     Harris-Foulkes estimate   =    -170.49127927 Ry
     estimated scf accuracy    <       0.00799446 Ry

     iteration #  3     ecut=    80.00 Ry     beta=0.80
     Davidson diagonalization with overlap
     ethr =  1.91E-06,  avg # of iterations =  3.0

     total cpu time spent up to now is      251.8 secs

     total energy              =    -170.48880326 Ry
     Harris-Foulkes estimate   =    -170.48916273 Ry
     estimated scf accuracy    <       0.00108389 Ry

     iteration #  4     ecut=    80.00 Ry     beta=0.80
     Davidson diagonalization with overlap
     ethr =  1.35E-06,  avg # of iterations =  1.5

     total cpu time spent up to now is      255.2 secs

     total energy              =    -170.48876743 Ry
     Harris-Foulkes estimate   =    -170.48887863 Ry
     estimated scf accuracy    <       0.00022092 Ry

     iteration #  5     ecut=    80.00 Ry     beta=0.80
     Davidson diagonalization with overlap
     ethr =  2.76E-07,  avg # of iterations =  2.0

     total cpu time spent up to now is      259.5 secs

     total energy              =    -170.48883313 Ry
     Harris-Foulkes estimate   =    -170.48883423 Ry
     estimated scf accuracy    <       0.00000527 Ry

     iteration #  6     ecut=    80.00 Ry     beta=0.80
     Davidson diagonalization with overlap
     ethr =  6.59E-09,  avg # of iterations =  2.0

     total cpu time spent up to now is      265.7 secs

     total energy              =    -170.48883227 Ry
     Harris-Foulkes estimate   =    -170.48883354 Ry
     estimated scf accuracy    <       0.00000253 Ry

     iteration #  7     ecut=    80.00 Ry     beta=0.80
     Davidson diagonalization with overlap
     ethr =  3.17E-09,  avg # of iterations =  2.0

     total cpu time spent up to now is      270.1 secs

     total energy              =    -170.48883285 Ry
     Harris-Foulkes estimate   =    -170.48883297 Ry
     estimated scf accuracy    <       0.00000027 Ry

     iteration #  8     ecut=    80.00 Ry     beta=0.80
     Davidson diagonalization with overlap
     ethr =  3.33E-10,  avg # of iterations =  2.0

     total cpu time spent up to now is      274.3 secs

     End of self-consistent calculation

          k = 0.0000 0.0000 0.0000 ( 36537 PWs)   bands (ev):

   -17.6447 -17.6156 -17.5849 -17.5627  -8.8739  -8.7371  -8.4565  -8.4565
    -8.4505  -8.4505  -7.7186  -7.7186  -7.6505  -7.6505  -7.3592  -7.3592
    -7.3426  -7.3426  -5.0054  -4.7607  -4.1734  -4.1417  -4.1417  -3.9935
    -3.8913  -3.8913  -3.7120  -3.4921  -3.3671  -3.3671  -2.9938  -2.7917
    -2.7352  -2.7352  -2.7261  -2.7073  -2.7073  -2.6703  -2.6703  -2.4274
     3.7227   4.4824   4.7035   5.2971   5.2971   5.4802   5.6308   5.6722

          k = 0.0000 0.0000-0.4712 ( 36658 PWs)   bands (ev):

   -17.6216 -17.6216 -17.5826 -17.5826  -8.8048  -8.8048  -8.4632  -8.4632
    -8.4087  -8.4087  -7.7837  -7.7837  -7.6900  -7.6900  -7.3357  -7.3357
    -7.3047  -7.3047  -4.8945  -4.8945  -4.1310  -4.1310  -4.0434  -4.0434
    -4.0166  -4.0166  -3.3681  -3.3681  -3.0732  -3.0732  -3.0698  -3.0698
    -3.0319  -3.0319  -2.6812  -2.6812  -2.6597  -2.6597  -2.6158  -2.6158
     4.2396   4.2396   5.1493   5.1493   5.1795   5.1795   5.3241   5.3241

          k =-0.0000-0.5797 0.0000 ( 36682 PWs)   bands (ev):

   -17.6342 -17.6242 -17.5786 -17.5709  -8.9331  -8.7195  -8.6014  -8.4796
    -8.3685  -8.1541  -7.7116  -7.6838  -7.6553  -7.6117  -7.5982  -7.5674
    -7.3698  -7.2700  -4.9281  -4.6434  -4.2160  -3.9870  -3.8924  -3.8191
    -3.8099  -3.6209  -3.5528  -3.4980  -3.4021  -3.3024  -3.1978  -3.0787
    -3.0700  -3.0210  -2.8862  -2.7943  -2.6396  -2.6209  -2.5863  -2.5709
     4.3668   4.5808   4.7313   4.9130   5.0489   5.1328   5.3261   5.3468

          k =-0.0000-0.5797-0.4712 ( 36672 PWs)   bands (ev):

   -17.6157 -17.6157 -17.5885 -17.5885  -8.7578  -8.7578  -8.5662  -8.5662
    -8.4007  -8.4007  -7.6741  -7.6741  -7.5695  -7.5695  -7.4849  -7.4849
    -7.4017  -7.4017  -4.7431  -4.7431  -4.2329  -4.2329  -3.8495  -3.8495
    -3.6465  -3.6465  -3.5334  -3.5333  -3.3771  -3.3771  -3.1566  -3.1566
    -2.8780  -2.8780  -2.8428  -2.8428  -2.7514  -2.7514  -2.5730  -2.5730
     4.5103   4.5103   4.7666   4.7666   5.0304   5.0304   5.4045   5.4045

     the Fermi energy is    -0.0890 ev

!    total energy              =    -170.48883288 Ry
     Harris-Foulkes estimate   =    -170.48883289 Ry
     estimated scf accuracy    <          7.5E-09 Ry

     The total energy is the sum of the following terms:

     one-electron contribution =     -95.32337929 Ry
     hartree contribution      =      69.18280383 Ry
     xc contribution           =     -71.61585145 Ry
     ewald contribution        =     -72.73240597 Ry
     smearing contrib. (-TS)   =      -0.00000000 Ry

     convergence has been achieved in   8 iterations

     Forces acting on atoms (Ry/au):

     atom    1 type  2   force =     0.00032758   -0.00049011    0.00186957
     atom    2 type  2   force =     0.00026065    0.00052874    0.00186957
     atom    3 type  2   force =    -0.00058823   -0.00003864    0.00186957
     atom    4 type  2   force =    -0.00032758    0.00049011    0.00186957
     atom    5 type  2   force =    -0.00026065   -0.00052874    0.00186957
     atom    6 type  2   force =     0.00058823    0.00003864    0.00186957
     atom    7 type  3   force =     0.00016134    0.00004502    0.00030289
     atom    8 type  3   force =    -0.00011966    0.00011721    0.00030289
     atom    9 type  3   force =    -0.00004168   -0.00016223    0.00030289
     atom   10 type  3   force =    -0.00016134   -0.00004502    0.00030289
     atom   11 type  3   force =     0.00011966   -0.00011721    0.00030289
     atom   12 type  3   force =     0.00004168    0.00016223    0.00030289
     atom   13 type  3   force =    -0.00050151    0.00210787    0.00350115
     atom   14 type  3   force =    -0.00157471   -0.00148826    0.00350115
     atom   15 type  3   force =     0.00207622   -0.00061961    0.00350115
     atom   16 type  3   force =     0.00050151   -0.00210787    0.00350115
     atom   17 type  3   force =     0.00157471    0.00148826    0.00350115
     atom   18 type  3   force =    -0.00207622    0.00061961    0.00350115
     atom   19 type  3   force =    -0.00029435   -0.00106543    0.00105331
     atom   20 type  3   force =     0.00106986    0.00027780    0.00105331
     atom   21 type  3   force =    -0.00077551    0.00078763    0.00105331
     atom   22 type  3   force =     0.00029435    0.00106543    0.00105331
     atom   23 type  3   force =    -0.00106986   -0.00027780    0.00105331
     atom   24 type  3   force =     0.00077551   -0.00078763    0.00105331
     atom   25 type  3   force =     0.00144465   -0.00087930    0.00103610
     atom   26 type  3   force =     0.00003917    0.00169076    0.00103610
     atom   27 type  3   force =    -0.00148382   -0.00081145    0.00103610
     atom   28 type  3   force =    -0.00144465    0.00087930    0.00103610
     atom   29 type  3   force =    -0.00003917   -0.00169076    0.00103610
     atom   30 type  3   force =     0.00148382    0.00081145    0.00103610
     atom   31 type  3   force =     0.00012539    0.00057515   -0.00480196
     atom   32 type  3   force =    -0.00056078   -0.00017898   -0.00480196
     atom   33 type  3   force =     0.00043540   -0.00039616   -0.00480196
     atom   34 type  3   force =    -0.00012539   -0.00057515   -0.00480196
     atom   35 type  3   force =     0.00056078    0.00017898   -0.00480196
     atom   36 type  3   force =    -0.00043540    0.00039616   -0.00480196
     atom   37 type  3   force =    -0.00092362   -0.00002997   -0.00129154
     atom   38 type  3   force =     0.00048776   -0.00078489   -0.00129154
     atom   39 type  3   force =     0.00043585    0.00081486   -0.00129154
     atom   40 type  3   force =     0.00092362    0.00002997   -0.00129154
     atom   41 type  3   force =    -0.00048776    0.00078489   -0.00129154
     atom   42 type  3   force =    -0.00043585   -0.00081486   -0.00129154
     atom   43 type  5   force =    -0.00000000   -0.00000000    0.00041175
     atom   44 type  5   force =    -0.00000000   -0.00000000    0.00041175
     atom   45 type  1   force =     0.00000000    0.00000000   -0.00215990
     atom   46 type  1   force =     0.00000000    0.00000000   -0.00215990
     atom   47 type  4   force =     0.00000000    0.00000000   -0.00255239
     atom   48 type  4   force =     0.00000000    0.00000000   -0.00255239
     atom   49 type  4   force =     0.00000000    0.00000000   -0.00070798
     atom   50 type  4   force =    -0.00000000   -0.00000000   -0.00070798

     Total force =     0.018503     Total SCF correction =     0.000061


     entering subroutine stress ...

          total   stress  (Ry/bohr**3)                   (kbar)     P=   -2.29
  -0.00000854   0.00000000   0.00000000         -1.26      0.00      0.00
  -0.00000000  -0.00000854   0.00000000         -0.00     -1.26      0.00
   0.00000000   0.00000000  -0.00002965          0.00      0.00     -4.36


     number of scf cycles    =   4
     number of bfgs steps    =   3

     enthalpy old            =    -170.4874045655 Ry
     enthalpy new            =    -170.4888328822 Ry

     CASE: enthalpy_new < enthalpy_old

     new trust radius        =       0.0366449158 bohr
     new conv_thr            =       0.0000000048 Ry

     new unit-cell volume =   2976.93319 a.u.^3 (   441.13598 Ang^3 )

CELL_PARAMETERS (bohr)
  14.787316178  -0.000000000  -0.000000000
  -7.393658089  12.806191464   0.000000000
   0.000000000   0.000000000  15.720260526

ATOMIC_POSITIONS (angstrom)
B        3.123689147   4.692588933   3.857411268
B        2.199365400   0.358899688   3.857411268
B        6.414612252   1.725256465   3.857411268
B        0.788866453   2.084156153   8.016813201
B        1.713190199   6.417845398   8.016813201
B       -2.502056652   5.051488621   8.016813201
H        3.023437787   5.218444152   2.761318454
H        1.794087103   0.009151854   2.761318454
H        6.920141910   1.549149080   2.761318454
H        0.889117813   1.558300935   6.920720140
H        2.118468497   6.767593232   6.920720140
H       -3.007586310   5.227596006   6.920720140
H        2.778281131   5.452596072   4.742126737
H       -2.198671680   6.456509088   4.742126737
H       -0.579609450   1.644385012   4.742126737
H        1.134274469   1.324149014   0.582724805
H        6.111227280   0.320235998   0.582724805
H        4.492165050   5.132360074   0.582724805
H        2.353857968   3.739331149   3.900529151
H        3.409826446   0.168835223   3.900529151
H        5.973982384   2.868578714   3.900529151
H        1.558697632   3.037413936   8.059931332
H        0.502729154   6.607909863   8.059931332
H       -2.061426784   3.908166372   8.059931332
H        4.282259340   4.348785794   4.025931841
H        1.917822556   1.534152477   4.025931841
H        5.537584903   0.893806815   4.025931841
H       -0.369703741   2.427959292   8.185333773
H        1.994733044   5.242592609   8.185333773
H       -1.625029303   5.882938272   8.185333773
H        4.185689951   3.168666071   1.613957310
H        2.988120911   2.040580794   1.613957310
H        4.563855938   1.567498221   1.613957310
H       -0.273134351   3.608079016   5.773359242
H        0.924434689   4.736164292   5.773359242
H       -0.651300338   5.209246865   5.773359242
H        2.979067956   2.165058725   6.615035327
H        4.460581365   1.497419167   6.615035327
H        4.298017478   3.114267194   6.615035327
H        0.933487644   4.611686362   2.455633395
H       -0.548025765   5.279325919   2.455633395
H       -0.385461878   3.662477892   2.455633395
Mg       0.000000000   4.517830192   8.259653674
Mg       3.912555367   2.258914894   4.100251742
Li       0.000000000   0.000000000   5.581358517
Li       0.000000000   0.000000000   1.421956585
N        3.912555716   2.258915096   1.984858100
N        0.000000000   4.517829788   6.144260033
N        3.912555716   2.258915096   6.210865397
N        0.000000000   4.517829788   2.051463464



     Writing output data file mgli.save
     NEW-OLD atomic charge density approx. for the potential
     extrapolated charge   79.54486, renormalised to   80.00000

     total cpu time spent up to now is      290.9 secs

     per-process dynamical memory:    64.2 Mb

     Self-consistent Calculation

     iteration #  1     ecut=    80.00 Ry     beta=0.80
     Davidson diagonalization with overlap
     ethr =  1.00E-06,  avg # of iterations =  4.5

     total cpu time spent up to now is      297.9 secs

     total energy              =    -170.48485560 Ry
     Harris-Foulkes estimate   =    -170.81440335 Ry
     estimated scf accuracy    <       0.00335013 Ry

     iteration #  2     ecut=    80.00 Ry     beta=0.80
     Davidson diagonalization with overlap
     ethr =  4.19E-06,  avg # of iterations =  4.2

     total cpu time spent up to now is      304.6 secs

     total energy              =    -170.48918627 Ry
     Harris-Foulkes estimate   =    -170.49536814 Ry
     estimated scf accuracy    <       0.01804580 Ry

     iteration #  3     ecut=    80.00 Ry     beta=0.80
     Davidson diagonalization with overlap
     ethr =  4.19E-06,  avg # of iterations =  3.0

     total cpu time spent up to now is      309.5 secs

     total energy              =    -170.48984560 Ry
     Harris-Foulkes estimate   =    -170.49060261 Ry
     estimated scf accuracy    <       0.00241584 Ry

     iteration #  4     ecut=    80.00 Ry     beta=0.80
     Davidson diagonalization with overlap
     ethr =  3.02E-06,  avg # of iterations =  1.0

     total cpu time spent up to now is      316.8 secs

     total energy              =    -170.48970676 Ry
     Harris-Foulkes estimate   =    -170.48999151 Ry
     estimated scf accuracy    <       0.00056310 Ry

     iteration #  5     ecut=    80.00 Ry     beta=0.80
     Davidson diagonalization with overlap
     ethr =  7.04E-07,  avg # of iterations =  2.0

     total cpu time spent up to now is      321.1 secs

     total energy              =    -170.48986926 Ry
     Harris-Foulkes estimate   =    -170.48987184 Ry
     estimated scf accuracy    <       0.00001269 Ry

     iteration #  6     ecut=    80.00 Ry     beta=0.80
     Davidson diagonalization with overlap
     ethr =  1.59E-08,  avg # of iterations =  2.0

     total cpu time spent up to now is      324.9 secs

     total energy              =    -170.48986694 Ry
     Harris-Foulkes estimate   =    -170.48987022 Ry
     estimated scf accuracy    <       0.00000628 Ry

     iteration #  7     ecut=    80.00 Ry     beta=0.80
     Davidson diagonalization with overlap
     ethr =  7.85E-09,  avg # of iterations =  2.0

     total cpu time spent up to now is      329.2 secs

     total energy              =    -170.48986845 Ry
     Harris-Foulkes estimate   =    -170.48986893 Ry
     estimated scf accuracy    <       0.00000095 Ry

     iteration #  8     ecut=    80.00 Ry     beta=0.80
     Davidson diagonalization with overlap
     ethr =  1.19E-09,  avg # of iterations =  2.0

     total cpu time spent up to now is      333.6 secs

     total energy              =    -170.48986863 Ry
     Harris-Foulkes estimate   =    -170.48986864 Ry
     estimated scf accuracy    <       0.00000002 Ry

     iteration #  9     ecut=    80.00 Ry     beta=0.80
     Davidson diagonalization with overlap
     ethr =  2.82E-11,  avg # of iterations =  2.2

     total cpu time spent up to now is      337.9 secs

     total energy              =    -170.48986863 Ry
     Harris-Foulkes estimate   =    -170.48986863 Ry
     estimated scf accuracy    <          9.6E-09 Ry

     iteration # 10     ecut=    80.00 Ry     beta=0.80
     Davidson diagonalization with overlap
     ethr =  1.20E-11,  avg # of iterations =  2.0

     total cpu time spent up to now is      342.1 secs

     End of self-consistent calculation

          k = 0.0000 0.0000 0.0000 ( 36537 PWs)   bands (ev):

   -17.6497 -17.6358 -17.5002 -17.4934  -8.8621  -8.7235  -8.4356  -8.4356
    -8.4288  -8.4288  -7.6834  -7.6834  -7.6113  -7.6112  -7.3260  -7.3260
    -7.3134  -7.3134  -5.0022  -4.7565  -4.1584  -4.1331  -4.1331  -4.0054
    -3.8778  -3.8778  -3.7092  -3.4570  -3.3435  -3.3435  -2.9659  -2.7647
    -2.7117  -2.7117  -2.6924  -2.6902  -2.6901  -2.6424  -2.6424  -2.3990
     3.7651   4.5069   4.7372   5.3366   5.3366   5.5161   5.6701   5.6946

          k =-0.0000 0.0000-0.4728 ( 36658 PWs)   bands (ev):

   -17.6387 -17.6387 -17.5011 -17.5011  -8.7920  -8.7920  -8.4345  -8.4345
    -8.3951  -8.3950  -7.7231  -7.7231  -7.6845  -7.6845  -7.2904  -7.2904
    -7.2792  -7.2792  -4.8893  -4.8893  -4.1343  -4.1343  -4.0326  -4.0326
    -4.0044  -4.0044  -3.3442  -3.3442  -3.0470  -3.0470  -3.0387  -3.0387
    -3.0063  -3.0063  -2.6611  -2.6611  -2.6400  -2.6400  -2.5911  -2.5911
     4.2717   4.2717   5.1823   5.1823   5.2294   5.2294   5.3612   5.3612

          k =-0.0000-0.5804 0.0000 ( 36682 PWs)   bands (ev):

   -17.6438 -17.6391 -17.4992 -17.4968  -8.9204  -8.7050  -8.5846  -8.4631
    -8.3445  -8.1232  -7.6697  -7.6515  -7.6127  -7.5825  -7.5782  -7.5378
    -7.3342  -7.2348  -4.9270  -4.6389  -4.2134  -3.9722  -3.8811  -3.8049
    -3.8031  -3.6051  -3.5347  -3.4835  -3.3831  -3.2912  -3.1773  -3.0598
    -3.0459  -2.9940  -2.8518  -2.7621  -2.6148  -2.5881  -2.5636  -2.5486
     4.4081   4.6182   4.7689   4.9450   5.0814   5.1686   5.3573   5.3852

          k =-0.0000-0.5804-0.4728 ( 36672 PWs)   bands (ev):

   -17.6372 -17.6372 -17.5026 -17.5026  -8.7430  -8.7430  -8.5490  -8.5490
    -8.3780  -8.3780  -7.6333  -7.6333  -7.5393  -7.5393  -7.4503  -7.4502
    -7.3704  -7.3704  -4.7389  -4.7389  -4.2324  -4.2324  -3.8381  -3.8381
    -3.6274  -3.6274  -3.5177  -3.5177  -3.3573  -3.3573  -3.1321  -3.1321
    -2.8561  -2.8561  -2.8221  -2.8221  -2.7161  -2.7161  -2.5499  -2.5499
     4.5420   4.5420   4.8089   4.8089   5.0657   5.0658   5.4381   5.4381

     the Fermi energy is    -0.0735 ev

!    total energy              =    -170.48986863 Ry
     Harris-Foulkes estimate   =    -170.48986863 Ry
     estimated scf accuracy    <          9.2E-10 Ry

     The total energy is the sum of the following terms:

     one-electron contribution =     -94.59081258 Ry
     hartree contribution      =      68.88998051 Ry
     xc contribution           =     -71.62673452 Ry
     ewald contribution        =     -73.16230204 Ry
     smearing contrib. (-TS)   =      -0.00000000 Ry

     convergence has been achieved in  10 iterations

     Forces acting on atoms (Ry/au):

     atom    1 type  2   force =     0.00022883   -0.00017074    0.00161672
     atom    2 type  2   force =     0.00003345    0.00028355    0.00161672
     atom    3 type  2   force =    -0.00026228   -0.00011281    0.00161672
     atom    4 type  2   force =    -0.00022883    0.00017074    0.00161672
     atom    5 type  2   force =    -0.00003345   -0.00028355    0.00161672
     atom    6 type  2   force =     0.00026228    0.00011281    0.00161672
     atom    7 type  3   force =     0.00007835    0.00044708   -0.00046936
     atom    8 type  3   force =    -0.00042636   -0.00015569   -0.00046936
     atom    9 type  3   force =     0.00034801   -0.00029140   -0.00046936
     atom   10 type  3   force =    -0.00007835   -0.00044708   -0.00046936
     atom   11 type  3   force =     0.00042636    0.00015569   -0.00046936
     atom   12 type  3   force =    -0.00034801    0.00029140   -0.00046936
     atom   13 type  3   force =    -0.00043592    0.00134081    0.00351815
     atom   14 type  3   force =    -0.00094321   -0.00104792    0.00351815
     atom   15 type  3   force =     0.00137914   -0.00029288    0.00351815
     atom   16 type  3   force =     0.00043592   -0.00134081    0.00351815
     atom   17 type  3   force =     0.00094321    0.00104792    0.00351815
     atom   18 type  3   force =    -0.00137914    0.00029288    0.00351815
     atom   19 type  3   force =    -0.00059785   -0.00097226    0.00150981
     atom   20 type  3   force =     0.00114093   -0.00003162    0.00150981
     atom   21 type  3   force =    -0.00054308    0.00100389    0.00150981
     atom   22 type  3   force =     0.00059785    0.00097226    0.00150981
     atom   23 type  3   force =    -0.00114093    0.00003162    0.00150981
     atom   24 type  3   force =     0.00054308   -0.00100389    0.00150981
     atom   25 type  3   force =     0.00147019   -0.00053657    0.00146339
     atom   26 type  3   force =    -0.00027041    0.00154150    0.00146339
     atom   27 type  3   force =    -0.00119978   -0.00100493    0.00146339
     atom   28 type  3   force =    -0.00147019    0.00053657    0.00146339
     atom   29 type  3   force =     0.00027041   -0.00154150    0.00146339
     atom   30 type  3   force =     0.00119978    0.00100493    0.00146339
     atom   31 type  3   force =    -0.00105522   -0.00336387   -0.00352940
     atom   32 type  3   force =     0.00344080    0.00076809   -0.00352940
     atom   33 type  3   force =    -0.00238559    0.00259578   -0.00352940
     atom   34 type  3   force =     0.00105522    0.00336387   -0.00352940
     atom   35 type  3   force =    -0.00344080   -0.00076809   -0.00352940
     atom   36 type  3   force =     0.00238559   -0.00259578   -0.00352940
     atom   37 type  3   force =    -0.00209206   -0.00012936   -0.00156683
     atom   38 type  3   force =     0.00115806   -0.00174710   -0.00156683
     atom   39 type  3   force =     0.00093400    0.00187646   -0.00156683
     atom   40 type  3   force =     0.00209206    0.00012936   -0.00156683
     atom   41 type  3   force =    -0.00115806    0.00174710   -0.00156683
     atom   42 type  3   force =    -0.00093400   -0.00187646   -0.00156683
     atom   43 type  5   force =    -0.00000000   -0.00000000   -0.00806785
     atom   44 type  5   force =    -0.00000000   -0.00000000   -0.00806785
     atom   45 type  1   force =    -0.00000000    0.00000000   -0.00177896
     atom   46 type  1   force =    -0.00000000    0.00000000   -0.00177896
     atom   47 type  4   force =    -0.00000000    0.00000000   -0.00359002
     atom   48 type  4   force =     0.00000000    0.00000000   -0.00359002
     atom   49 type  4   force =     0.00000000   -0.00000000    0.00580940
     atom   50 type  4   force =     0.00000000   -0.00000000    0.00580940

     Total force =     0.023961     Total SCF correction =     0.000021


     entering subroutine stress ...

          total   stress  (Ry/bohr**3)                   (kbar)     P=   -1.70
  -0.00000936   0.00000000  -0.00000000         -1.38      0.00     -0.00
  -0.00000000  -0.00000936   0.00000000         -0.00     -1.38      0.00
   0.00000000   0.00000000  -0.00001594          0.00      0.00     -2.35


     number of scf cycles    =   5
     number of bfgs steps    =   4

     enthalpy old            =    -170.4888328822 Ry
     enthalpy new            =    -170.4898686311 Ry

     CASE: enthalpy_new < enthalpy_old

     new trust radius        =       0.0320091104 bohr
     new conv_thr            =       0.0000000081 Ry

     new unit-cell volume =   2962.04092 a.u.^3 (   438.92917 Ang^3 )

CELL_PARAMETERS (bohr)
  14.771963962  -0.000000000  -0.000000000
  -7.385981981  12.792896055   0.000000000
   0.000000000   0.000000000  15.674148011

ATOMIC_POSITIONS (angstrom)
B        3.120923565   4.687522417   3.850498967
B        2.197011879   0.359037882   3.850498967
B        6.407545290   1.723149159   3.850498967
B        0.787570014   2.082187041   7.997700054
B        1.711481698   6.410671577   7.997700054
B       -2.499051712   5.046560299   7.997700054
H        3.020653382   5.212837438   2.754374383
H        1.792210818   0.009543846   2.754374383
H        6.912616534   1.547328175   2.754374383
H        0.887840196   1.556872021   6.901575223
H        2.116282760   6.760165613   6.901575223
H       -3.004122956   5.222381284   6.901575223
H        2.774819089   5.450019291   4.733942976
H       -2.198771123   6.447763634   4.733942976
H       -0.576047965   1.641635991   4.733942976
H        1.133674489   1.319690167   0.586741891
H        6.107264701   0.321945824   0.586741891
H        4.484541543   5.128073467   0.586741891
H        2.351199580   3.733757613   3.891141256
H        3.407858421   0.169319759   3.891141256
H        5.966422732   2.866632086   3.891141256
H        1.557293998   3.035951845   8.038342589
H        0.500635157   6.600389699   8.038342589
H       -2.057929154   3.903077372   8.038342589
H        4.279978224   4.342713603   4.016062250
H        1.916097742   1.535213069   4.016062250
H        5.529404768   0.891782787   4.016062250
H       -0.371484646   2.426995855   8.163263335
H        1.992395836   5.234496390   8.163263335
H       -1.620911190   5.877926672   8.163263335
H        4.181775515   3.167090528   1.600017131
H        2.983318546   2.037978565   1.600017131
H        4.560386674   1.564640366   1.600017131
H       -0.273281937   3.602618931   5.747218216
H        0.925175032   4.731730893   5.747218216
H       -0.651893096   5.205069093   5.747218216
H        2.975133714   2.162836716   6.593416653
H        4.456348759   1.495123018   6.593416653
H        4.293998262   3.111749724   6.593416653
H        0.933359864   4.606872742   2.446215567
H       -0.547855181   5.274586441   2.446215567
H       -0.385504684   3.657959734   2.446215567
Mg       0.000000000   4.513139773   8.238734851
Mg       3.908493346   2.256569685   4.091533765
Li       0.000000000   0.000000000   5.560798124
Li       0.000000000   0.000000000   1.413597038
N        3.908493694   2.256569887   1.971416628
N        0.000000000   4.513139370   6.118617715
N        3.908493694   2.256569887   6.189572540
N        0.000000000   4.513139370   2.042371453



     Writing output data file mgli.save
     NEW-OLD atomic charge density approx. for the potential
     extrapolated charge   79.59784, renormalised to   80.00000

     total cpu time spent up to now is      358.7 secs

     per-process dynamical memory:    67.2 Mb

     Self-consistent Calculation

     iteration #  1     ecut=    80.00 Ry     beta=0.80
     Davidson diagonalization with overlap
     ethr =  1.00E-06,  avg # of iterations =  4.2

     total cpu time spent up to now is      365.6 secs

     total energy              =    -170.48673715 Ry
     Harris-Foulkes estimate   =    -170.77464893 Ry
     estimated scf accuracy    <       0.00266707 Ry

     iteration #  2     ecut=    80.00 Ry     beta=0.80
     Davidson diagonalization with overlap
     ethr =  3.33E-06,  avg # of iterations =  4.0

     total cpu time spent up to now is      372.1 secs

     total energy              =    -170.49013887 Ry
     Harris-Foulkes estimate   =    -170.49508904 Ry
     estimated scf accuracy    <       0.01440866 Ry

     iteration #  3     ecut=    80.00 Ry     beta=0.80
     Davidson diagonalization with overlap
     ethr =  3.33E-06,  avg # of iterations =  3.0

     total cpu time spent up to now is      377.0 secs

     total energy              =    -170.49068062 Ry
     Harris-Foulkes estimate   =    -170.49128037 Ry
     estimated scf accuracy    <       0.00189390 Ry

     iteration #  4     ecut=    80.00 Ry     beta=0.80
     Davidson diagonalization with overlap
     ethr =  2.37E-06,  avg # of iterations =  1.5

     total cpu time spent up to now is      380.4 secs

     total energy              =    -170.49058250 Ry
     Harris-Foulkes estimate   =    -170.49079768 Ry
     estimated scf accuracy    <       0.00042360 Ry

     iteration #  5     ecut=    80.00 Ry     beta=0.80
     Davidson diagonalization with overlap
[...]

     PseudoPot. # 4 for  N read from file:
     /ORTAK/progs/QuantumESPRESSO/pseudo/N.pbe-mt_fhi.UPF
     MD5 check sum: e15e723d2596c7aaeca87f2bd8795892
     Pseudo is Norm-conserving, Zval =  5.0
     Generated using FHI98PP, converted with fhi2upf.x v.5.0.2
     Using radial grid of  467 points,  3 beta functions with: 
                l(1) =   0
                l(2) =   1
                l(3) =   3

     PseudoPot. # 5 for Mg read from file:
     /ORTAK/progs/QuantumESPRESSO/pseudo/Mg.pbe-mt_fhi.UPF
     MD5 check sum: 3897899eb5a4c751d6dca7253808c53d
     Pseudo is Norm-conserving + core correction, Zval =  2.0
     Generated using FHI98PP, converted with fhi2upf.x v.5.0.2
     Using radial grid of  489 points,  3 beta functions with: 
                l(1) =   0
                l(2) =   1
                l(3) =   3

     atomic species   valence    mass     pseudopotential
        Li             1.00     6.94100     Li( 1.00)
        B              3.00    10.81100      B( 1.00)
        H              1.00     1.00790      H( 1.00)
        N              5.00    14.00670      N( 1.00)
        Mg             2.00    24.30500     Mg( 1.00)

      6 Sym. Ops. (no inversion) found ( 3 have fractional translation)



   Cartesian axes

     site n.     atom                  positions (alat units)
         1           B   tau(   1) = (   0.4045026   0.5959971   0.5259640  )
         2           B   tau(   2) = (   0.2822343   0.0523110   0.5259640  )
         3           B   tau(   3) = (   0.8142145   0.2182666   0.5259640  )
         4           B   tau(   4) = (   0.0958146   0.2705776   1.0704907  )
         5           B   tau(   5) = (   0.2180828   0.8142638   1.0704907  )
         6           B   tau(   6) = (  -0.3138974   0.6483081   1.0704907  )
         7           H   tau(   7) = (   0.3842223   0.6803576   0.3974486  )
         8           H   tau(   8) = (   0.2193162  -0.0074325   0.3974486  )
         9           H   tau(   9) = (   0.8974129   0.1936496   0.3974486  )
        10           H   tau(  10) = (   0.1160948   0.1862171   0.9419752  )
        11           H   tau(  11) = (   0.2810010   0.8740072   0.9419752  )
        12           H   tau(  12) = (  -0.3970958   0.6729251   0.9419752  )
        13           H   tau(  13) = (   0.3855999   0.6801724   0.6548189  )
        14           H   tau(  14) = (  -0.2815294   0.8604278   0.6548189  )
        15           H   tau(  15) = (  -0.1040705   0.1925492   0.6548189  )
        16           H   tau(  16) = (   0.1147172   0.1864023   0.1102922  )
        17           H   tau(  17) = (   0.7818466   0.0061469   0.1102922  )
        18           H   tau(  18) = (   0.6043876   0.6740256   0.1102922  )
        19           H   tau(  19) = (   0.3006726   0.4807954   0.5265166  )
        20           H   tau(  20) = (   0.4339170   0.0199924   0.5265166  )
        21           H   tau(  21) = (   0.7663619   0.3657869   0.5265166  )
        22           H   tau(  22) = (   0.1996446   0.3857793   1.0710434  )
        23           H   tau(  23) = (   0.0664002   0.8465823   1.0710434  )
        24           H   tau(  24) = (  -0.2660447   0.5007878   1.0710434  )
        25           H   tau(  25) = (   0.5515789   0.5449689   0.5251670  )
        26           H   tau(  26) = (   0.2528879   0.2051969   0.5251670  )
        27           H   tau(  27) = (   0.6964846   0.1164089   0.5251670  )
        28           H   tau(  28) = (  -0.0512618   0.3216058   1.0696937  )
        29           H   tau(  29) = (   0.2474292   0.6613778   1.0696937  )
        30           H   tau(  30) = (  -0.1961675   0.7501658   1.0696937  )
        31           H   tau(  31) = (   0.5399455   0.4018993   0.2017144  )
        32           H   tau(  32) = (   0.3826066   0.2666568   0.2017144  )
        33           H   tau(  33) = (   0.5783994   0.1980186   0.2017144  )
        34           H   tau(  34) = (  -0.0396283   0.4646754   0.7462411  )
        35           H   tau(  35) = (   0.1177106   0.5999179   0.7462411  )
        36           H   tau(  36) = (  -0.0780823   0.6685561   0.7462411  )
        37           H   tau(  37) = (   0.3826837   0.2663043   0.8497234  )
        38           H   tau(  38) = (   0.5786661   0.1982616   0.8497234  )
        39           H   tau(  39) = (   0.5396017   0.4020088   0.8497234  )
        40           H   tau(  40) = (   0.1176335   0.6002704   0.3051967  )
        41           H   tau(  41) = (  -0.0783490   0.6683131   0.3051967  )
        42           H   tau(  42) = (  -0.0392845   0.4645659   0.3051967  )
        43           Mg  tau(  43) = (   0.0000000   0.5777165   1.0702739  )
        44           Mg  tau(  44) = (   0.5003171   0.2888582   0.5257472  )
        45           Li  tau(  45) = (   0.0000000  -0.0000000   0.5260688  )
        46           Li  tau(  46) = (  -0.0000000   0.0000000  -0.0184579  )
        47           N   tau(  47) = (   0.5003172   0.2888583   0.2514852  )
        48           N   tau(  48) = (   0.0000000   0.5777164   0.7960119  )
        49           N   tau(  49) = (   0.5003172   0.2888583   0.7999099  )
        50           N   tau(  50) = (   0.0000000   0.5777164   0.2553833  )

     number of k points=     4  gaussian smearing, width (Ry)=  0.0050
                       cart. coord. in units 2pi/alat
        k(    1) = (   0.0000000   0.0000000   0.0000000), wk =   0.2500000
        k(    2) = (   0.0000000  -0.0000000  -0.4591143), wk =   0.2500000
        k(    3) = (  -0.0000000  -0.5769843   0.0000000), wk =   0.7500000
        k(    4) = (  -0.0000000  -0.5769843  -0.4591143), wk =   0.7500000

     Dense  grid:   299955 G-vectors     FFT dimensions: (  90,  90,  96)

     Largest allocated arrays     est. size (Mb)     dimensions
        Kohn-Sham Wavefunctions         0.87 Mb     (    1182,   48)
        NL pseudopotentials             9.92 Mb     (    1182,  550)
        Each V/rho on FFT grid          0.37 Mb     (   24300)
        Each G-vector array             0.07 Mb     (    9377)
        G-vector shells                 0.03 Mb     (    3920)
     Largest temporary arrays     est. size (Mb)     dimensions
        Auxiliary wavefunctions         3.46 Mb     (    1182,  192)
        Each subspace H/S matrix        0.04 Mb     (      48,   48)
        Each <psi_i|beta_j> matrix      0.40 Mb     (     550,   48)
        Arrays for rho mixing           2.97 Mb     (   24300,    8)

     Initial potential from superposition of free atoms

     starting charge   79.98824, renormalised to   80.00000
     Starting wfc are  800 randomized atomic wfcs

     Writing output data file mgli.save

     total cpu time spent up to now is     6490.6 secs

     per-process dynamical memory:    56.5 Mb

     Self-consistent Calculation

     iteration #  1     ecut=    80.00 Ry     beta=0.80
     Davidson diagonalization with overlap
     c_bands:  1 eigenvalues not converged
     ethr =  1.00E-06,  avg # of iterations = 15.8

     total cpu time spent up to now is     6508.1 secs

     total energy              =    -168.70515870 Ry
     Harris-Foulkes estimate   =    -172.57283584 Ry
     estimated scf accuracy    <       5.79678073 Ry

     iteration #  2     ecut=    80.00 Ry     beta=0.80
     Davidson diagonalization with overlap
     ethr =  7.25E-03,  avg # of iterations =  2.0

     total cpu time spent up to now is     6512.7 secs

     total energy              =    -169.78365692 Ry
     Harris-Foulkes estimate   =    -171.64510192 Ry
     estimated scf accuracy    <       3.35972835 Ry

     iteration #  3     ecut=    80.00 Ry     beta=0.80
     Davidson diagonalization with overlap
     ethr =  4.20E-03,  avg # of iterations =  2.0

     total cpu time spent up to now is     6517.1 secs

     total energy              =    -170.50939098 Ry
     Harris-Foulkes estimate   =    -170.57799613 Ry
     estimated scf accuracy    <       0.11455465 Ry

     iteration #  4     ecut=    80.00 Ry     beta=0.80
     Davidson diagonalization with overlap
     ethr =  1.43E-04,  avg # of iterations =  3.2

     total cpu time spent up to now is     6522.2 secs

     total energy              =    -170.54290295 Ry
     Harris-Foulkes estimate   =    -170.55772234 Ry
     estimated scf accuracy    <       0.02939558 Ry

     iteration #  5     ecut=    80.00 Ry     beta=0.80
     Davidson diagonalization with overlap
     ethr =  3.67E-05,  avg # of iterations =  3.0

     total cpu time spent up to now is     6527.1 secs

     total energy              =    -170.54861576 Ry
     Harris-Foulkes estimate   =    -170.54868278 Ry
     estimated scf accuracy    <       0.00020349 Ry

     iteration #  6     ecut=    80.00 Ry     beta=0.80
     Davidson diagonalization with overlap
     ethr =  2.54E-07,  avg # of iterations =  5.2

     total cpu time spent up to now is     6533.7 secs

     total energy              =    -170.54875280 Ry
     Harris-Foulkes estimate   =    -170.54881275 Ry
     estimated scf accuracy    <       0.00013016 Ry

     iteration #  7     ecut=    80.00 Ry     beta=0.80
     Davidson diagonalization with overlap
     ethr =  1.63E-07,  avg # of iterations =  2.0

     total cpu time spent up to now is     6541.4 secs

     total energy              =    -170.54876834 Ry
     Harris-Foulkes estimate   =    -170.54877192 Ry
     estimated scf accuracy    <       0.00001039 Ry

     iteration #  8     ecut=    80.00 Ry     beta=0.80
     Davidson diagonalization with overlap
     ethr =  1.30E-08,  avg # of iterations =  2.0

     total cpu time spent up to now is     6545.5 secs

     total energy              =    -170.54876955 Ry
     Harris-Foulkes estimate   =    -170.54876956 Ry
     estimated scf accuracy    <       0.00000046 Ry

     iteration #  9     ecut=    80.00 Ry     beta=0.80
     Davidson diagonalization with overlap
     ethr =  5.70E-10,  avg # of iterations =  3.0

     total cpu time spent up to now is     6550.6 secs

     total energy              =    -170.54876971 Ry
     Harris-Foulkes estimate   =    -170.54876975 Ry
     estimated scf accuracy    <       0.00000009 Ry

     iteration # 10     ecut=    80.00 Ry     beta=0.80
     Davidson diagonalization with overlap
     ethr =  1.13E-10,  avg # of iterations =  2.0

     total cpu time spent up to now is     6554.6 secs

     total energy              =    -170.54876972 Ry
     Harris-Foulkes estimate   =    -170.54876972 Ry
     estimated scf accuracy    <          3.7E-09 Ry

     iteration # 11     ecut=    80.00 Ry     beta=0.80
     Davidson diagonalization with overlap
     ethr =  4.68E-12,  avg # of iterations =  2.8

     total cpu time spent up to now is     6559.5 secs

     total energy              =    -170.54876972 Ry
     Harris-Foulkes estimate   =    -170.54876972 Ry
     estimated scf accuracy    <          1.3E-10 Ry

     iteration # 12     ecut=    80.00 Ry     beta=0.80
     Davidson diagonalization with overlap
     ethr =  1.59E-13,  avg # of iterations =  2.0

     total cpu time spent up to now is     6564.0 secs

     End of self-consistent calculation

          k = 0.0000 0.0000 0.0000 ( 37475 PWs)   bands (ev):

   -17.8506 -17.8217 -17.8102 -17.7870  -9.1353  -9.0389  -8.6699  -8.6699
    -8.6584  -8.6584  -7.9027  -7.9027  -7.8277  -7.8277  -7.6821  -7.6821
    -7.6422  -7.6421  -5.2153  -4.9921  -4.4580  -4.4580  -4.3072  -4.2504
    -4.2504  -4.1655  -3.8831  -3.8130  -3.3668  -3.3668  -3.2388  -3.0878
    -3.0769  -3.0769  -3.0304  -3.0304  -2.9812  -2.9212  -2.9212  -2.7078
     3.5057   4.0337   4.1285   5.1562   5.1562   5.2270   5.2270   5.2810

          k = 0.0000-0.0000-0.4591 ( 37498 PWs)   bands (ev):

   -17.8306 -17.8306 -17.8043 -17.8043  -9.0861  -9.0861  -8.6532  -8.6532
    -8.6531  -8.6531  -7.9204  -7.9204  -7.9187  -7.9187  -7.6212  -7.6212
    -7.6196  -7.6196  -5.1191  -5.1191  -4.3589  -4.3589  -4.3584  -4.3584
    -4.2966  -4.2966  -3.5653  -3.5653  -3.3753  -3.3753  -3.1725  -3.1725
    -3.1694  -3.1694  -3.0215  -3.0215  -3.0204  -3.0204  -2.8716  -2.8716
     3.8670   3.8670   4.9213   4.9213   5.2613   5.2613   5.2633   5.2633

          k =-0.0000-0.5770 0.0000 ( 37450 PWs)   bands (ev):

   -17.8409 -17.8313 -17.8024 -17.7947  -9.1149  -8.9758  -8.8197  -8.7959
    -8.6190  -8.4353  -7.9308  -7.9119  -7.8281  -7.8228  -7.8036  -7.8001
    -7.6231  -7.5761  -5.1313  -4.9173  -4.4610  -4.1833  -4.1357  -4.0512
    -4.0505  -4.0452  -3.9979  -3.5490  -3.5293  -3.4468  -3.4085  -3.3783
    -3.2749  -3.2417  -3.1683  -3.0987  -2.9953  -2.9520  -2.9018  -2.8066
     4.1904   4.3658   4.5528   4.7162   4.8241   4.9056   5.1225   5.2779

          k =-0.0000-0.5770-0.4591 ( 37544 PWs)   bands (ev):

   -17.8221 -17.8221 -17.8129 -17.8129  -8.9939  -8.9939  -8.8087  -8.8087
    -8.6482  -8.6482  -7.8547  -7.8547  -7.8057  -7.8057  -7.7244  -7.7244
    -7.6873  -7.6873  -4.9881  -4.9881  -4.4747  -4.4747  -4.1081  -4.1081
    -3.9706  -3.9706  -3.7706  -3.7706  -3.4926  -3.4926  -3.3444  -3.3444
    -3.2502  -3.2502  -3.0378  -3.0378  -3.0122  -3.0122  -2.9258  -2.9258
     4.2552   4.2552   4.7577   4.7577   4.8920   4.8920   5.1015   5.1015

     the Fermi energy is    -0.4338 ev

!    total energy              =    -170.54876972 Ry
     Harris-Foulkes estimate   =    -170.54876972 Ry
     estimated scf accuracy    <          1.1E-11 Ry

     The total energy is the sum of the following terms:

     one-electron contribution =    -100.95222011 Ry
     hartree contribution      =      71.31753057 Ry
     xc contribution           =     -71.68255471 Ry
     ewald contribution        =     -69.23152548 Ry
     smearing contrib. (-TS)   =      -0.00000000 Ry

     convergence has been achieved in  12 iterations

     Forces acting on atoms (Ry/au):

     atom    1 type  2   force =    -0.00002905    0.00001907    0.00000112
     atom    2 type  2   force =    -0.00000199   -0.00003470    0.00000112
     atom    3 type  2   force =     0.00003104    0.00001563    0.00000112
     atom    4 type  2   force =     0.00002905   -0.00001907    0.00000112
     atom    5 type  2   force =     0.00000199    0.00003470    0.00000112
     atom    6 type  2   force =    -0.00003104   -0.00001563    0.00000112
     atom    7 type  3   force =    -0.00000470    0.00000319    0.00004749
     atom    8 type  3   force =    -0.00000042   -0.00000566    0.00004749
     atom    9 type  3   force =     0.00000511    0.00000247    0.00004749
     atom   10 type  3   force =     0.00000470   -0.00000319    0.00004749
     atom   11 type  3   force =     0.00000042    0.00000566    0.00004749
     atom   12 type  3   force =    -0.00000511   -0.00000247    0.00004749
     atom   13 type  3   force =    -0.00006839   -0.00000025   -0.00000249
     atom   14 type  3   force =     0.00003441   -0.00005910   -0.00000249
     atom   15 type  3   force =     0.00003398    0.00005935   -0.00000249
     atom   16 type  3   force =     0.00006839    0.00000025   -0.00000249
     atom   17 type  3   force =    -0.00003441    0.00005910   -0.00000249
     atom   18 type  3   force =    -0.00003398   -0.00005935   -0.00000249
     atom   19 type  3   force =    -0.00003514    0.00004053   -0.00005020
     atom   20 type  3   force =    -0.00001753   -0.00005070   -0.00005020
     atom   21 type  3   force =     0.00005267    0.00001017   -0.00005020
     atom   22 type  3   force =     0.00003514   -0.00004053   -0.00005020
     atom   23 type  3   force =     0.00001753    0.00005070   -0.00005020
     atom   24 type  3   force =    -0.00005267   -0.00001017   -0.00005020
     atom   25 type  3   force =    -0.00000616    0.00001126    0.00003501
     atom   26 type  3   force =    -0.00000667   -0.00001097    0.00003501
     atom   27 type  3   force =     0.00001283   -0.00000030    0.00003501
     atom   28 type  3   force =     0.00000616   -0.00001126    0.00003501
     atom   29 type  3   force =     0.00000667    0.00001097    0.00003501
     atom   30 type  3   force =    -0.00001283    0.00000030    0.00003501
     atom   31 type  3   force =     0.00003309   -0.00004006    0.00002227
     atom   32 type  3   force =     0.00001815    0.00004868    0.00002227
     atom   33 type  3   force =    -0.00005123   -0.00000863    0.00002227
     atom   34 type  3   force =    -0.00003309    0.00004006    0.00002227
     atom   35 type  3   force =    -0.00001815   -0.00004868    0.00002227
     atom   36 type  3   force =     0.00005123    0.00000863    0.00002227
     atom   37 type  3   force =     0.00003215    0.00005194   -0.00003679
     atom   38 type  3   force =    -0.00006106    0.00000187   -0.00003679
     atom   39 type  3   force =     0.00002891   -0.00005381   -0.00003679
     atom   40 type  3   force =    -0.00003215   -0.00005194   -0.00003679
     atom   41 type  3   force =     0.00006106   -0.00000187   -0.00003679
     atom   42 type  3   force =    -0.00002891    0.00005381   -0.00003679
     atom   43 type  5   force =     0.00000000   -0.00000000   -0.00004837
     atom   44 type  5   force =     0.00000000   -0.00000000   -0.00004837
     atom   45 type  1   force =     0.00000000   -0.00000000   -0.00001241
     atom   46 type  1   force =     0.00000000   -0.00000000   -0.00001241
     atom   47 type  4   force =     0.00000000   -0.00000000   -0.00003442
     atom   48 type  4   force =     0.00000000    0.00000000   -0.00003442
     atom   49 type  4   force =    -0.00000000    0.00000000    0.00004598
     atom   50 type  4   force =     0.00000000    0.00000000    0.00004598

     Total force =     0.000389     Total SCF correction =     0.000002


     entering subroutine stress ...

          total   stress  (Ry/bohr**3)                   (kbar)     P=   -0.04
  -0.00000040   0.00000000   0.00000000         -0.06      0.00      0.00
  -0.00000000  -0.00000040   0.00000000         -0.00     -0.06      0.00
   0.00000000   0.00000000  -0.00000011          0.00      0.00     -0.02


     Writing output data file mgli.save
 
     init_run     :     51.16s CPU     52.39s WALL (       2 calls)
     electrons    :   4668.03s CPU   4702.56s WALL (     110 calls)
     update_pot   :    165.42s CPU    167.44s WALL (     108 calls)
     forces       :    249.14s CPU    251.55s WALL (     110 calls)
     stress       :   1382.64s CPU   1388.23s WALL (     110 calls)

     Called by init_run:
     wfcinit      :     48.90s CPU     50.09s WALL (       2 calls)
     potinit      :      0.81s CPU      0.81s WALL (       2 calls)

     Called by electrons:
     c_bands      :   4114.71s CPU   4143.40s WALL (     884 calls)
     sum_band     :    446.68s CPU    449.56s WALL (     884 calls)
     v_of_rho     :     88.67s CPU     89.21s WALL (     981 calls)
     mix_rho      :     13.98s CPU     14.13s WALL (     884 calls)

     Called by c_bands:
     init_us_2    :    169.08s CPU    170.68s WALL (    7960 calls)
     cegterg      :   3842.15s CPU   3868.16s WALL (    3536 calls)

     Called by sum_band:

     Called by *egterg:
     h_psi        :   3066.86s CPU   3089.97s WALL (   12980 calls)
     g_psi        :      4.86s CPU      4.85s WALL (    9436 calls)
     cdiaghg      :    330.90s CPU    332.34s WALL (   12488 calls)

     Called by h_psi:
     add_vuspsi   :    439.56s CPU    440.87s WALL (   12980 calls)

     General routines
     calbec       :    864.73s CPU    878.33s WALL (   15180 calls)
     fft          :    134.27s CPU    135.16s WALL (   13565 calls)
     fftw         :   2169.86s CPU   2181.84s WALL ( 1179610 calls)
 
     Parallel routines
     fft_scatter  :   1704.36s CPU   1714.97s WALL ( 1193175 calls)
 
     PWSCF        :     1h48m CPU        1h49m WALL

 
   This run was terminated on:   2:45: 0  15Jan2017            

=------------------------------------------------------------------------------=
   JOB DONE.
=------------------------------------------------------------------------------=
