
     Program PWSCF v.5.4.0 starts on 27Jun2019 at 15:24: 8 

     This program is part of the open-source Quantum ESPRESSO suite
     for quantum simulation of materials; please cite
         "P. Giannozzi et al., J. Phys.:Condens. Matter 21 395502 (2009);
          URL http://www.quantum-espresso.org", 
     in publications or presentations arising from this work. More details at
     http://www.quantum-espresso.org/quote

     Parallel version (MPI), running on    64 processors
     R & G space division:  proc/nbgrp/npool/nimage =      64
     Waiting for input...
     Reading input from standard input

     Current dimensions of program PWSCF are:
     Max number of different atomic species (ntypx) = 10
     Max number of k-points (npk) =  40000
     Max angular momentum in pseudopotentials (lmaxx) =  3
               file Li.pbe-mt_fhi.UPF: wavefunction(s)  2p 4f renormalized
               file B.pbe-mt_fhi.UPF: wavefunction(s)  4f renormalized
               file H.pbe-mt_fhi.UPF: wavefunction(s)  2p 4f renormalized
               file N.pbe-mt_fhi.UPF: wavefunction(s)  4f renormalized
               file Mg.pbe-mt_fhi.UPF: wavefunction(s)  3p 4f renormalized

     Subspace diagonalization in iterative solution of the eigenvalue problem:
     one sub-group per band group will be used
     scalapack distributed-memory algorithm (size of sub-group:  5*  5 procs)

     Message from routine find_sym:
     Not a group! Trying with lower acceptance parameter...
     Message from routine find_sym:
     Symmetry operations form a group
 
     Parallelization info
     --------------------
     sticks:   dense  smooth     PW     G-vecs:    dense   smooth      PW
     Min          92      92     24                 5616     5616     772
     Max          93      93     25                 5623     5623     777
     Sum        5947    5947   1597               359785   359785   49595
 


     bravais-lattice index     =            0
     lattice parameter (alat)  =      16.4538  a.u.
     unit-cell volume          =    3724.3913 (a.u.)^3
     number of atoms/cell      =           50
     number of atomic types    =            5
     number of electrons       =        80.00
     number of Kohn-Sham states=           48
     kinetic-energy cutoff     =      80.0000  Ry
     charge density cutoff     =     320.0000  Ry
     convergence threshold     =      1.0E-08
     mixing beta               =       0.8000
     number of iterations used =            8  plain     mixing
     Exchange-correlation      = PBE ( 1  4  3  4 0 0)
     nstep                     =         9000


     celldm(1)=  16.453827  celldm(2)=   0.000000  celldm(3)=   0.000000
     celldm(4)=   0.000000  celldm(5)=   0.000000  celldm(6)=   0.000000

     crystal axes: (cart. coord. in units of alat)
               a(1) = (   1.000000   0.000000   0.000000 )  
               a(2) = (  -0.500000   0.866025   0.000000 )  
               a(3) = (   0.000000   0.000000   0.965437 )  

     reciprocal axes: (cart. coord. in units 2 pi/alat)
               b(1) = (  1.000000  0.577350  0.000000 )  
               b(2) = (  0.000000  1.154701  0.000000 )  
               b(3) = (  0.000000  0.000000  1.035800 )  


     PseudoPot. # 1 for Li read from file:
     /ORTAK/progs/QuantumESPRESSO/pseudo/Li.pbe-mt_fhi.UPF
     MD5 check sum: b65a6db51c5b36e0de52eaff8082552c
     Pseudo is Norm-conserving + core correction, Zval =  1.0
     Generated using FHI98PP, converted with fhi2upf.x v.5.0.2
     Using radial grid of  433 points,  3 beta functions with: 
                l(1) =   0
                l(2) =   1
                l(3) =   3

     PseudoPot. # 2 for  B read from file:
     /ORTAK/progs/QuantumESPRESSO/pseudo/B.pbe-mt_fhi.UPF
     MD5 check sum: 3ba04917d1d3a8de85490f79a9c37fe5
     Pseudo is Norm-conserving + core correction, Zval =  3.0
     Generated using FHI98PP, converted with fhi2upf.x v.5.0.2
     Using radial grid of  453 points,  3 beta functions with: 
                l(1) =   0
                l(2) =   1
                l(3) =   3

     PseudoPot. # 3 for  H read from file:
     /ORTAK/progs/QuantumESPRESSO/pseudo/H.pbe-mt_fhi.UPF
     MD5 check sum: a19bd5488733b3d98581df861506e80d
     Pseudo is Norm-conserving, Zval =  1.0
     Generated using FHI98PP, converted with fhi2upf.x v.5.0.2
     Using radial grid of  387 points,  3 beta functions with: 
                l(1) =   0
                l(2) =   1
                l(3) =   3

     PseudoPot. # 4 for  N read from file:
     /ORTAK/progs/QuantumESPRESSO/pseudo/N.pbe-mt_fhi.UPF
     MD5 check sum: e15e723d2596c7aaeca87f2bd8795892
     Pseudo is Norm-conserving, Zval =  5.0
     Generated using FHI98PP, converted with fhi2upf.x v.5.0.2
     Using radial grid of  467 points,  3 beta functions with: 
                l(1) =   0
                l(2) =   1
                l(3) =   3

     PseudoPot. # 5 for Mg read from file:
     /ORTAK/progs/QuantumESPRESSO/pseudo/Mg.pbe-mt_fhi.UPF
     MD5 check sum: 3897899eb5a4c751d6dca7253808c53d
     Pseudo is Norm-conserving + core correction, Zval =  2.0
     Generated using FHI98PP, converted with fhi2upf.x v.5.0.2
     Using radial grid of  489 points,  3 beta functions with: 
                l(1) =   0
                l(2) =   1
                l(3) =   3

     atomic species   valence    mass     pseudopotential
        Li             1.00     6.94100     Li( 1.00)
        B              3.00    10.81100      B( 1.00)
        H              1.00     1.00800      H( 1.00)
        N              5.00    14.00700      N( 1.00)
        Mg             2.00    24.30500     Mg( 1.00)

     No symmetry found



   Cartesian axes

     site n.     atom                  positions (alat units)
         1           Li  tau(   1) = (   0.0000000   0.0000000   0.0000000  )
         2           Li  tau(   2) = (   0.0000000   0.0000000   0.4827185  )
         3           B   tau(   3) = (   0.0000000   0.2810252   0.2413592  )
         4           B   tau(   4) = (   0.7566250   0.1405126   0.7240777  )
         5           B   tau(   5) = (   0.2566250   0.7255128   0.2413592  )
         6           B   tau(   6) = (   0.5000000   0.5850002   0.7240777  )
         7           B   tau(   7) = (  -0.2566250   0.7255128   0.2413592  )
         8           B   tau(   8) = (   0.2433750   0.1405126   0.7240777  )
         9           H   tau(   9) = (   0.5000050   0.6619292   0.6066999  )
        10           H   tau(  10) = (  -0.3232450   0.7639816   0.1239814  )
        11           H   tau(  11) = (   0.1767500   0.1020524   0.6066999  )
        12           H   tau(  12) = (  -0.0000050   0.2040962   0.1239814  )
        13           H   tau(  13) = (   0.8232450   0.1020438   0.6066999  )
        14           H   tau(  14) = (   0.3232500   0.7639730   0.1239814  )
        15           H   tau(  15) = (   0.0000050   0.2040962   0.3587371  )
        16           H   tau(  16) = (   0.8232500   0.1020524   0.8414556  )
        17           H   tau(  17) = (   0.3232450   0.7639816   0.3587371  )
        18           H   tau(  18) = (   0.4999950   0.6619292   0.8414556  )
        19           H   tau(  19) = (  -0.3232500   0.7639730   0.3587371  )
        20           H   tau(  20) = (   0.1767550   0.1020438   0.8414556  )
        21           H   tau(  21) = (   0.1294550   0.7874336   0.2413592  )
        22           H   tau(  22) = (   0.3827900   0.5058281   0.7240777  )
        23           H   tau(  23) = (  -0.2466650   0.5844199   0.2413592  )
        24           H   tau(  24) = (   0.3705450   0.0785918   0.7240777  )
        25           H   tau(  25) = (   0.1172100   0.3601973   0.2413592  )
        26           H   tau(  26) = (   0.7466650   0.2816055   0.7240777  )
        27           H   tau(  27) = (   0.6294550   0.0785918   0.7240777  )
        28           H   tau(  28) = (   0.2466650   0.5844199   0.2413592  )
        29           H   tau(  29) = (   0.6172100   0.5058281   0.7240777  )
        30           H   tau(  30) = (  -0.1294550   0.7874336   0.2413592  )
        31           H   tau(  31) = (   0.2533350   0.2816055   0.7240777  )
        32           H   tau(  32) = (  -0.1172100   0.3601973   0.2413592  )
        33           H   tau(  33) = (   0.5000050   0.3973584   0.4284899  )
        34           H   tau(  34) = (  -0.0941200   0.6316962   0.9112084  )
        35           H   tau(  35) = (   0.4058750   0.2343378   0.4284899  )
        36           H   tau(  36) = (  -0.0000050   0.4686670   0.9112084  )
        37           H   tau(  37) = (   0.5941200   0.2343292   0.4284899  )
        38           H   tau(  38) = (   0.0941250   0.6316876   0.9112084  )
        39           H   tau(  39) = (   0.0000050   0.4686670   0.5369471  )
        40           H   tau(  40) = (   0.5941250   0.2343378   0.0542286  )
        41           H   tau(  41) = (   0.0941200   0.6316962   0.5369471  )
        42           H   tau(  42) = (   0.4999950   0.3973584   0.0542286  )
        43           H   tau(  43) = (  -0.0941250   0.6316876   0.5369471  )
        44           H   tau(  44) = (   0.4058800   0.2343292   0.0542286  )
        45           N   tau(  45) = (  -0.0000050   0.5773532   0.9540931  )
        46           N   tau(  46) = (   0.4999950   0.2886722   0.4713746  )
        47           N   tau(  47) = (   0.4999950   0.2886722   0.0113439  )
        48           N   tau(  48) = (   0.0000000   0.5773445   0.4940624  )
        49           Mg  tau(  49) = (  -0.0000050   0.5773532   0.2413592  )
        50           Mg  tau(  50) = (   0.4999950   0.2886722   0.7240777  )

     number of k points=     8  gaussian smearing, width (Ry)=  0.0050
                       cart. coord. in units 2pi/alat
        k(    1) = (   0.0000000   0.0000000   0.0000000), wk =   0.2500000
        k(    2) = (   0.0000000   0.0000000  -0.5179002), wk =   0.2500000
        k(    3) = (   0.0000000  -0.5773503   0.0000000), wk =   0.2500000
        k(    4) = (   0.0000000  -0.5773503  -0.5179002), wk =   0.2500000
        k(    5) = (   0.5000000  -0.2886751   0.0000000), wk =   0.2500000
        k(    6) = (  -0.5000000  -0.2886751   0.0000000), wk =   0.2500000
        k(    7) = (   0.5000000  -0.2886751  -0.5179002), wk =   0.2500000
        k(    8) = (  -0.5000000  -0.2886751  -0.5179002), wk =   0.2500000

     Dense  grid:   359785 G-vectors     FFT dimensions: (  96,  96,  96)

     Largest allocated arrays     est. size (Mb)     dimensions
        Kohn-Sham Wavefunctions         0.52 Mb     (     714,   48)
        NL pseudopotentials             5.99 Mb     (     714,  550)
        Each V/rho on FFT grid          0.28 Mb     (   18432)
        Each G-vector array             0.04 Mb     (    5623)
        G-vector shells                 0.04 Mb     (    5623)
     Largest temporary arrays     est. size (Mb)     dimensions
        Auxiliary wavefunctions         2.09 Mb     (     714,  192)
        Each subspace H/S matrix        0.02 Mb     (      38,   38)
        Each <psi_i|beta_j> matrix      0.40 Mb     (     550,   48)
        Arrays for rho mixing           2.25 Mb     (   18432,    8)

     Initial potential from superposition of free atoms

     starting charge   79.98824, renormalised to   80.00000
     Starting wfc are  800 randomized atomic wfcs

     total cpu time spent up to now is       47.6 secs

     per-process dynamical memory:    56.9 Mb

     Self-consistent Calculation

     iteration #  1     ecut=    80.00 Ry     beta=0.80
     Davidson diagonalization with overlap
     ethr =  1.00E-02,  avg # of iterations =  2.4

     total cpu time spent up to now is       57.1 secs

     total energy              =    -168.61518997 Ry
     Harris-Foulkes estimate   =    -172.50009580 Ry
     estimated scf accuracy    <       5.77183598 Ry

     iteration #  2     ecut=    80.00 Ry     beta=0.80
     Davidson diagonalization with overlap
     ethr =  7.21E-03,  avg # of iterations =  2.0

     total cpu time spent up to now is       66.3 secs

     total energy              =    -169.55612098 Ry
     Harris-Foulkes estimate   =    -171.60095727 Ry
     estimated scf accuracy    <       3.71988598 Ry

     iteration #  3     ecut=    80.00 Ry     beta=0.80
     Davidson diagonalization with overlap
     ethr =  4.65E-03,  avg # of iterations =  2.0

     total cpu time spent up to now is       74.9 secs

     total energy              =    -170.38849976 Ry
     Harris-Foulkes estimate   =    -170.47054459 Ry
     estimated scf accuracy    <       0.14227764 Ry

     iteration #  4     ecut=    80.00 Ry     beta=0.80
     Davidson diagonalization with overlap
     ethr =  1.78E-04,  avg # of iterations =  3.6

     total cpu time spent up to now is       85.5 secs

     total energy              =    -170.43315704 Ry
     Harris-Foulkes estimate   =    -170.45032135 Ry
     estimated scf accuracy    <       0.03375867 Ry

     iteration #  5     ecut=    80.00 Ry     beta=0.80
     Davidson diagonalization with overlap
     ethr =  4.22E-05,  avg # of iterations =  4.1

     total cpu time spent up to now is       95.7 secs

     total energy              =    -170.43938360 Ry
     Harris-Foulkes estimate   =    -170.43952669 Ry
     estimated scf accuracy    <       0.00039542 Ry

     iteration #  6     ecut=    80.00 Ry     beta=0.80
     Davidson diagonalization with overlap
     ethr =  4.94E-07,  avg # of iterations =  4.1

     total cpu time spent up to now is      107.5 secs

     total energy              =    -170.43957598 Ry
     Harris-Foulkes estimate   =    -170.43966500 Ry
     estimated scf accuracy    <       0.00018989 Ry

     iteration #  7     ecut=    80.00 Ry     beta=0.80
     Davidson diagonalization with overlap
     ethr =  2.37E-07,  avg # of iterations =  2.0

     total cpu time spent up to now is      115.6 secs

     total energy              =    -170.43960193 Ry
     Harris-Foulkes estimate   =    -170.43960840 Ry
     estimated scf accuracy    <       0.00001695 Ry

     iteration #  8     ecut=    80.00 Ry     beta=0.80
     Davidson diagonalization with overlap
     ethr =  2.12E-08,  avg # of iterations =  2.0

     total cpu time spent up to now is      124.3 secs

     total energy              =    -170.43960444 Ry
     Harris-Foulkes estimate   =    -170.43960466 Ry
     estimated scf accuracy    <       0.00000091 Ry

     iteration #  9     ecut=    80.00 Ry     beta=0.80
     Davidson diagonalization with overlap
     ethr =  1.14E-09,  avg # of iterations =  2.0

     total cpu time spent up to now is      133.3 secs

     total energy              =    -170.43960469 Ry
     Harris-Foulkes estimate   =    -170.43960470 Ry
     estimated scf accuracy    <       0.00000004 Ry

     iteration # 10     ecut=    80.00 Ry     beta=0.80
     Davidson diagonalization with overlap
     ethr =  4.72E-11,  avg # of iterations =  2.0

     total cpu time spent up to now is      142.3 secs

     End of self-consistent calculation

          k = 0.0000 0.0000 0.0000 ( 45003 PWs)   bands (ev):

   -18.8400 -18.8330 -18.7923 -18.7869  -9.3993  -9.2416  -9.2089  -9.2089
    -9.1748  -9.1747  -8.8942  -8.8940  -8.8778  -8.8776  -8.5197  -8.5197
    -8.4773  -8.4773  -5.8016  -5.6030  -4.9276  -4.8231  -4.6072  -4.6071
    -4.4941  -4.4731  -4.4730  -4.2943  -4.0918  -4.0918  -3.9656  -3.5149
    -3.4923  -3.4923  -3.4828  -3.4828  -3.4159  -3.3716  -3.3716  -3.3391
     2.1802   2.5646   3.2904   3.8993   3.8993   4.1031   4.1031   4.1131

          k = 0.0000 0.0000-0.5179 ( 45010 PWs)   bands (ev):

   -18.8236 -18.8236 -18.8027 -18.8027  -9.3202  -9.3202  -9.1629  -9.1628
    -9.1626  -9.1625  -8.9351  -8.9350  -8.9347  -8.9345  -8.4801  -8.4801
    -8.4799  -8.4798  -5.6556  -5.6556  -5.0315  -5.0315  -4.5698  -4.5697
    -4.5697  -4.5696  -4.1970  -4.1970  -3.8514  -3.8514  -3.7952  -3.7952
    -3.7951  -3.7951  -3.3937  -3.3936  -3.3936  -3.3936  -3.3779  -3.3779
     2.4246   2.4246   3.7796   3.7796   4.1415   4.1416   4.1416   4.1416

          k = 0.0000-0.5774 0.0000 ( 44936 PWs)   bands (ev):

   -18.8377 -18.8354 -18.7904 -18.7886  -9.3996  -9.2748  -9.2658  -9.1350
    -9.1189  -9.1073  -8.9035  -8.8988  -8.8745  -8.8685  -8.5987  -8.5871
    -8.5132  -8.4875  -5.5768  -5.4907  -4.8325  -4.8320  -4.7502  -4.5962
    -4.4881  -4.4664  -4.3859  -4.0891  -4.0640  -3.9819  -3.9437  -3.7711
    -3.7043  -3.6763  -3.5604  -3.4914  -3.4839  -3.4558  -3.3924  -3.3507
     2.6133   2.8337   3.7230   3.7926   3.8546   3.9148   4.0792   4.5263

          k = 0.0000-0.5774-0.5179 ( 44988 PWs)   bands (ev):

   -18.8232 -18.8232 -18.8031 -18.8031  -9.2721  -9.2720  -9.1913  -9.1913
    -9.1755  -9.1754  -8.9243  -8.9241  -8.9096  -8.9094  -8.5670  -8.5668
    -8.4783  -8.4782  -5.4298  -5.4298  -5.0468  -5.0468  -4.6442  -4.6442
    -4.4309  -4.4309  -4.2241  -4.2241  -3.9223  -3.9223  -3.8982  -3.8982
    -3.7401  -3.7400  -3.5395  -3.5395  -3.4370  -3.4370  -3.3902  -3.3902
     2.8491   2.8491   3.6258   3.6258   4.0781   4.0781   4.3734   4.3734

          k = 0.5000-0.2887 0.0000 ( 44936 PWs)   bands (ev):

   -18.8377 -18.8354 -18.7904 -18.7886  -9.3996  -9.2748  -9.2658  -9.1350
    -9.1189  -9.1073  -8.9035  -8.8988  -8.8745  -8.8685  -8.5987  -8.5872
    -8.5132  -8.4875  -5.5768  -5.4907  -4.8325  -4.8320  -4.7502  -4.5962
    -4.4881  -4.4665  -4.3860  -4.0891  -4.0641  -3.9819  -3.9437  -3.7711
    -3.7043  -3.6764  -3.5604  -3.4914  -3.4839  -3.4558  -3.3923  -3.3506
     2.6133   2.8337   3.7230   3.7926   3.8546   3.9148   4.0792   4.5263

          k =-0.5000-0.2887 0.0000 ( 44936 PWs)   bands (ev):

   -18.8377 -18.8354 -18.7904 -18.7886  -9.3997  -9.2747  -9.2658  -9.1350
    -9.1189  -9.1072  -8.9034  -8.8989  -8.8746  -8.8684  -8.5988  -8.5872
    -8.5131  -8.4874  -5.5768  -5.4907  -4.8325  -4.8320  -4.7502  -4.5962
    -4.4881  -4.4665  -4.3860  -4.0891  -4.0640  -3.9819  -3.9437  -3.7711
    -3.7043  -3.6764  -3.5604  -3.4914  -3.4839  -3.4558  -3.3923  -3.3506
     2.6133   2.8337   3.7231   3.7926   3.8546   3.9148   4.0792   4.5263

          k = 0.5000-0.2887-0.5179 ( 44988 PWs)   bands (ev):

   -18.8232 -18.8232 -18.8031 -18.8031  -9.2721  -9.2720  -9.1914  -9.1913
    -9.1755  -9.1754  -8.9243  -8.9241  -8.9096  -8.9094  -8.5670  -8.5668
    -8.4783  -8.4782  -5.4298  -5.4298  -5.0468  -5.0467  -4.6442  -4.6442
    -4.4310  -4.4309  -4.2241  -4.2241  -3.9223  -3.9222  -3.8982  -3.8982
    -3.7401  -3.7400  -3.5395  -3.5395  -3.4370  -3.4370  -3.3902  -3.3901
     2.8491   2.8491   3.6258   3.6258   4.0781   4.0781   4.3734   4.3734

          k =-0.5000-0.2887-0.5179 ( 44988 PWs)   bands (ev):

   -18.8232 -18.8232 -18.8031 -18.8031  -9.2721  -9.2721  -9.1914  -9.1913
    -9.1755  -9.1753  -8.9243  -8.9239  -8.9098  -8.9094  -8.5671  -8.5669
    -8.4783  -8.4781  -5.4298  -5.4298  -5.0468  -5.0467  -4.6442  -4.6442
    -4.4310  -4.4309  -4.2241  -4.2241  -3.9223  -3.9222  -3.8982  -3.8982
    -3.7401  -3.7400  -3.5395  -3.5395  -3.4370  -3.4370  -3.3902  -3.3901
     2.8491   2.8491   3.6258   3.6258   4.0781   4.0781   4.3734   4.3734

     the Fermi energy is    -1.2472 ev

!    total energy              =    -170.43960470 Ry
     Harris-Foulkes estimate   =    -170.43960470 Ry
     estimated scf accuracy    <          2.1E-09 Ry

     The total energy is the sum of the following terms:

     one-electron contribution =    -124.45079844 Ry
     hartree contribution      =      80.99397840 Ry
     xc contribution           =     -71.28363692 Ry
     ewald contribution        =     -55.69914774 Ry
     smearing contrib. (-TS)   =      -0.00000000 Ry

     convergence has been achieved in  10 iterations

     Forces acting on atoms (Ry/au):

     atom    1 type  1   force =    -0.00000099    0.00000024   -0.00000004
     atom    2 type  1   force =    -0.00000095    0.00000016    0.00000003
     atom    3 type  2   force =     0.00000146    0.00005530   -0.00000059
     atom    4 type  2   force =    -0.00004756    0.00002865   -0.00000005
     atom    5 type  2   force =    -0.00004727   -0.00002924   -0.00000003
     atom    6 type  2   force =     0.00000118   -0.00005567   -0.00000000
     atom    7 type  2   force =     0.00004466   -0.00002610    0.00000063
     atom    8 type  2   force =     0.00004472    0.00002561    0.00000003
     atom    9 type  3   force =    -0.00000413    0.00001953    0.00082813
     atom   10 type  3   force =    -0.00001791    0.00000595    0.00082880
     atom   11 type  3   force =    -0.00001436   -0.00001291    0.00082856
     atom   12 type  3   force =     0.00000358   -0.00001981    0.00082800
     atom   13 type  3   force =     0.00001896   -0.00000659    0.00082777
     atom   14 type  3   force =     0.00001476    0.00001375    0.00082793
     atom   15 type  3   force =    -0.00000422   -0.00001952   -0.00082817
     atom   16 type  3   force =     0.00001497   -0.00001348   -0.00082785
     atom   17 type  3   force =     0.00001889    0.00000665   -0.00082791
     atom   18 type  3   force =     0.00000382    0.00001955   -0.00082812
     atom   19 type  3   force =    -0.00001426    0.00001283   -0.00082860
     atom   20 type  3   force =    -0.00001827   -0.00000607   -0.00082859
     atom   21 type  3   force =     0.00059506   -0.00126177   -0.00000388
     atom   22 type  3   force =     0.00139070   -0.00011508   -0.00000408
     atom   23 type  3   force =     0.00079436    0.00114731   -0.00000394
     atom   24 type  3   force =    -0.00059647    0.00126158   -0.00000405
     atom   25 type  3   force =    -0.00139247    0.00011595   -0.00000436
     atom   26 type  3   force =    -0.00079684   -0.00114724   -0.00000411
     atom   27 type  3   force =     0.00059537    0.00126180    0.00000404
     atom   28 type  3   force =    -0.00079664    0.00114771    0.00000387
     atom   29 type  3   force =    -0.00139220   -0.00011625    0.00000406
     atom   30 type  3   force =    -0.00059597   -0.00126164    0.00000438
     atom   31 type  3   force =     0.00079436   -0.00114736    0.00000406
     atom   32 type  3   force =     0.00139062    0.00011507    0.00000397
     atom   33 type  3   force =    -0.00000953    0.00118995    0.00061501
     atom   34 type  3   force =    -0.00111582    0.00064405    0.00056972
     atom   35 type  3   force =    -0.00111619   -0.00064417    0.00056967
     atom   36 type  3   force =    -0.00000936   -0.00118959    0.00061514
     atom   37 type  3   force =     0.00102604   -0.00060300    0.00061507
     atom   38 type  3   force =     0.00102569    0.00060296    0.00061517
     atom   39 type  3   force =    -0.00000015   -0.00128838   -0.00057182
     atom   40 type  3   force =     0.00102612   -0.00060319   -0.00061502
     atom   41 type  3   force =     0.00103492    0.00058669   -0.00061519
     atom   42 type  3   force =    -0.00000945    0.00119003   -0.00061498
     atom   43 type  3   force =    -0.00103455    0.00058644   -0.00061321
     atom   44 type  3   force =    -0.00111622   -0.00064417   -0.00056970
     atom   45 type  4   force =     0.00010010   -0.00005768    0.00653746
     atom   46 type  4   force =     0.00010030    0.00005774    0.00653879
     atom   47 type  4   force =     0.00010011    0.00005781   -0.00653901
     atom   48 type  4   force =    -0.00000146    0.00011801   -0.00653695
     atom   49 type  5   force =     0.00000707   -0.00000540   -0.00000003
     atom   50 type  5   force =     0.00000542    0.00000299    0.00000002

     Total force =     0.014999     Total SCF correction =     0.000096


     entering subroutine stress ...

          total   stress  (Ry/bohr**3)                   (kbar)     P=  -14.68
  -0.00009724   0.00000002   0.00000002        -14.30      0.00      0.00
   0.00000002  -0.00009726  -0.00000003          0.00    -14.31     -0.00
   0.00000002  -0.00000003  -0.00010491          0.00     -0.00    -15.43


     BFGS Geometry Optimization

     number of scf cycles    =   1
     number of bfgs steps    =   0

     enthalpy new            =    -170.4396046972 Ry

     new trust radius        =       0.0320117461 bohr
     new conv_thr            =       0.0000000100 Ry

     new unit-cell volume =   3696.58340 a.u.^3 (   547.77714 Ang^3 )

CELL_PARAMETERS (angstrom)
   8.685824124   0.000003830   0.000003647
  -4.342908745   7.522138394  -0.000007259
   0.000003521  -0.000006059   8.384003296

ATOMIC_POSITIONS (angstrom)
Li      -0.000000524   0.000000125  -0.000000020
Li       0.000001259  -0.000002943   4.192001662
B        0.000002728   2.440962215   2.095998748
B        6.571889752   1.220480738   6.288004322
B        2.228978324   6.301657081   2.095997191
B        4.342917568   5.081173768   6.288000623
B       -2.228972381   6.301656770   2.095995667
B        2.113939229   1.220477169   6.288002494
H        4.342958054   5.749405922   5.269110099
H       -2.807655294   6.635807643   1.077105158
H        1.535214436   0.886399070   5.269112657
H       -0.000040301   1.772731567   1.077109432
H        7.150573891   0.886329655   5.269114601
H        2.807703822   6.635739010   1.077107057
H        0.000043288   1.772730247   3.114889564
H        7.150616076   0.886399771   7.306895024
H        2.807663423   6.635809015   3.114887368
H        4.342876260   5.749404461   7.306890192
H       -2.807695945   6.635734575   3.114884643
H        1.535256659   0.886325979   7.306892277
H        1.124741384   6.838838983   2.095994305
H        3.325585331   4.393467882   6.287998543
H       -2.142066356   5.076769141   2.095994178
H        3.218176774   0.683297082   6.288001190
H        1.017332634   3.128668744   2.095996688
H        6.484983945   2.445367059   6.288001257
H        5.467652655   0.683298189   6.288006407
H        2.142071390   5.076771242   2.096000098
H        5.360247161   4.393468162   6.288003691
H       -1.124734073   6.838838060   2.095997722
H        2.200846307   2.445365107   6.288003771
H       -1.017329091   3.128667379   2.096000229
H        4.342953541   3.452011030   3.721396106
H       -0.818093057   5.487133492   7.913370210
H        3.524772105   2.035074757   3.721372854
H       -0.000043245   4.070122978   7.913395554
H        5.160965929   2.035021997   3.721397507
H        0.818100389   5.487037302   7.913394886
H        0.000047099   4.070073176   4.662626375
H        5.161008027   2.035099459   0.470605563
H        0.818060468   5.487106280   4.662602803
H        4.342865371   3.452013419   0.470604215
H       -0.818094943   5.487030211   4.662603159
H        3.524814147   2.035001890   0.470628796
N        0.000015109   5.014748843   8.288938035
N        4.342924412   2.507384469   4.096940724
N        4.342922628   2.507387400   0.095060831
N        0.000003239   5.014769258   4.287059933
Mg      -0.000036598   5.014780917   2.095997182
Mg       4.342875244   2.507353984   6.288002494



     Writing output data file mgli.save
     NEW-OLD atomic charge density approx. for the potential
     extrapolated charge   79.39828, renormalised to   80.00000

     total cpu time spent up to now is      160.7 secs

     per-process dynamical memory:    62.4 Mb

     Self-consistent Calculation

     iteration #  1     ecut=    80.00 Ry     beta=0.80
     Davidson diagonalization with overlap
     ethr =  1.00E-06,  avg # of iterations =  4.4

     total cpu time spent up to now is      174.8 secs

     total energy              =    -170.42978538 Ry
     Harris-Foulkes estimate   =    -171.05570200 Ry
     estimated scf accuracy    <       0.00886351 Ry

     iteration #  2     ecut=    80.00 Ry     beta=0.80
     Davidson diagonalization with overlap
     ethr =  1.11E-05,  avg # of iterations =  3.8

     total cpu time spent up to now is      187.1 secs

     total energy              =    -170.44003119 Ry
     Harris-Foulkes estimate   =    -170.45589215 Ry
     estimated scf accuracy    <       0.04507113 Ry

     iteration #  3     ecut=    80.00 Ry     beta=0.80
     Davidson diagonalization with overlap
     ethr =  1.11E-05,  avg # of iterations =  3.0

     total cpu time spent up to now is      196.8 secs

     total energy              =    -170.44304100 Ry
     Harris-Foulkes estimate   =    -170.44384716 Ry
     estimated scf accuracy    <       0.00520537 Ry

     iteration #  4     ecut=    80.00 Ry     beta=0.80
     Davidson diagonalization with overlap
     ethr =  6.51E-06,  avg # of iterations =  1.0

     total cpu time spent up to now is      203.3 secs

     total energy              =    -170.44169847 Ry
     Harris-Foulkes estimate   =    -170.44312067 Ry
     estimated scf accuracy    <       0.00303489 Ry

     iteration #  5     ecut=    80.00 Ry     beta=0.80
     Davidson diagonalization with overlap
     ethr =  3.79E-06,  avg # of iterations =  2.0

     total cpu time spent up to now is      211.7 secs

     total energy              =    -170.44228130 Ry
     Harris-Foulkes estimate   =    -170.44228124 Ry
     estimated scf accuracy    <       0.00000563 Ry

     iteration #  6     ecut=    80.00 Ry     beta=0.80
     Davidson diagonalization with overlap
     ethr =  7.04E-09,  avg # of iterations =  3.0

     total cpu time spent up to now is      221.9 secs

     total energy              =    -170.44228733 Ry
     Harris-Foulkes estimate   =    -170.44228704 Ry
     estimated scf accuracy    <       0.00000720 Ry

     iteration #  7     ecut=    80.00 Ry     beta=0.80
     Davidson diagonalization with overlap
     ethr =  7.04E-09,  avg # of iterations =  2.0

     total cpu time spent up to now is      230.4 secs

     total energy              =    -170.44228252 Ry
     Harris-Foulkes estimate   =    -170.44228823 Ry
     estimated scf accuracy    <       0.00001098 Ry

     iteration #  8     ecut=    80.00 Ry     beta=0.80
     Davidson diagonalization with overlap
     ethr =  7.04E-09,  avg # of iterations =  2.0

     total cpu time spent up to now is      239.4 secs

     total energy              =    -170.44228468 Ry
     Harris-Foulkes estimate   =    -170.44228474 Ry
     estimated scf accuracy    <       0.00000015 Ry

     iteration #  9     ecut=    80.00 Ry     beta=0.80
     Davidson diagonalization with overlap
     ethr =  1.90E-10,  avg # of iterations =  2.0

     total cpu time spent up to now is      247.7 secs

     total energy              =    -170.44228470 Ry
     Harris-Foulkes estimate   =    -170.44228471 Ry
     estimated scf accuracy    <       0.00000002 Ry

     iteration # 10     ecut=    80.00 Ry     beta=0.80
     Davidson diagonalization with overlap
     ethr =  2.08E-11,  avg # of iterations =  2.0

     total cpu time spent up to now is      255.2 secs

     End of self-consistent calculation

          k = 0.0000 0.0000 0.0000 ( 45003 PWs)   bands (ev):

   -18.8354 -18.8282 -18.7867 -18.7811  -9.3999  -9.2412  -9.2010  -9.2009
    -9.1652  -9.1651  -8.8745  -8.8744  -8.8578  -8.8577  -8.5025  -8.5025
    -8.4614  -8.4613  -5.8031  -5.6028  -4.9234  -4.8214  -4.5958  -4.5958
    -4.4844  -4.4592  -4.4592  -4.2832  -4.0764  -4.0764  -3.9520  -3.4948
    -3.4745  -3.4745  -3.4624  -3.4624  -3.3962  -3.3536  -3.3536  -3.3183
     2.2177   2.5976   3.3334   3.9436   3.9436   4.1347   4.1347   4.1787

          k = 0.0000-0.0000-0.5193 ( 45010 PWs)   bands (ev):

   -18.8184 -18.8184 -18.7975 -18.7975  -9.3202  -9.3202  -9.1542  -9.1541
    -9.1540  -9.1540  -8.9159  -8.9158  -8.9156  -8.9155  -8.4627  -8.4626
    -8.4625  -8.4625  -5.6556  -5.6556  -5.0305  -5.0305  -4.5574  -4.5574
    -4.5573  -4.5573  -4.1838  -4.1838  -3.8362  -3.8362  -3.7775  -3.7774
    -3.7774  -3.7773  -3.3753  -3.3753  -3.3752  -3.3752  -3.3577  -3.3577
     2.4565   2.4565   3.8446   3.8446   4.1814   4.1814   4.1815   4.1815

          k = 0.0000-0.5788-0.0000 ( 44936 PWs)   bands (ev):

   -18.8330 -18.8306 -18.7848 -18.7829  -9.3968  -9.2678  -9.2639  -9.1322
    -9.1111  -9.0964  -8.8841  -8.8794  -8.8545  -8.8482  -8.5830  -8.5693
    -8.4976  -8.4700  -5.5770  -5.4896  -4.8305  -4.8296  -4.7397  -4.5841
    -4.4751  -4.4527  -4.3717  -4.0736  -4.0495  -3.9675  -3.9289  -3.7567
    -3.6889  -3.6588  -3.5404  -3.4729  -3.4635  -3.4356  -3.3726  -3.3321
     2.6505   2.8707   3.7693   3.8358   3.8980   3.9498   4.1197   4.5755

          k = 0.0000-0.5788-0.5193 ( 44988 PWs)   bands (ev):

   -18.8180 -18.8180 -18.7979 -18.7979  -9.2687  -9.2687  -9.1871  -9.1871
    -9.1670  -9.1669  -8.9049  -8.9048  -8.8907  -8.8906  -8.5492  -8.5491
    -8.4609  -8.4608  -5.4284  -5.4284  -5.0456  -5.0456  -4.6334  -4.6334
    -4.4170  -4.4170  -4.2095  -4.2095  -3.9063  -3.9063  -3.8825  -3.8825
    -3.7240  -3.7240  -3.5210  -3.5210  -3.4175  -3.4175  -3.3715  -3.3715
     2.8832   2.8832   3.6710   3.6710   4.1196   4.1197   4.4272   4.4272

          k = 0.5012-0.2894-0.0000 ( 44936 PWs)   bands (ev):

   -18.8330 -18.8306 -18.7848 -18.7829  -9.3968  -9.2678  -9.2639  -9.1323
    -9.1111  -9.0964  -8.8841  -8.8794  -8.8545  -8.8482  -8.5831  -8.5693
    -8.4976  -8.4700  -5.5770  -5.4896  -4.8305  -4.8296  -4.7397  -4.5841
    -4.4750  -4.4527  -4.3717  -4.0736  -4.0495  -3.9675  -3.9288  -3.7567
    -3.6889  -3.6588  -3.5404  -3.4729  -3.4635  -3.4357  -3.3725  -3.3321
     2.6505   2.8707   3.7693   3.8358   3.8981   3.9499   4.1197   4.5754

          k =-0.5012-0.2894 0.0000 ( 44936 PWs)   bands (ev):

   -18.8330 -18.8306 -18.7848 -18.7829  -9.3968  -9.2678  -9.2639  -9.1323
    -9.1110  -9.0965  -8.8841  -8.8793  -8.8544  -8.8483  -8.5830  -8.5692
    -8.4977  -8.4701  -5.5770  -5.4896  -4.8305  -4.8296  -4.7397  -4.5841
    -4.4750  -4.4527  -4.3717  -4.0736  -4.0495  -3.9675  -3.9288  -3.7567
    -3.6889  -3.6588  -3.5404  -3.4729  -3.4635  -3.4357  -3.3725  -3.3321
     2.6505   2.8707   3.7693   3.8358   3.8981   3.9499   4.1197   4.5754

          k = 0.5012-0.2894-0.5193 ( 44988 PWs)   bands (ev):

   -18.8180 -18.8180 -18.7979 -18.7979  -9.2687  -9.2686  -9.1872  -9.1871
    -9.1670  -9.1669  -8.9049  -8.9048  -8.8907  -8.8906  -8.5492  -8.5492
    -8.4608  -8.4608  -5.4284  -5.4284  -5.0456  -5.0456  -4.6334  -4.6333
    -4.4171  -4.4170  -4.2095  -4.2095  -3.9063  -3.9062  -3.8826  -3.8825
    -3.7240  -3.7240  -3.5210  -3.5210  -3.4175  -3.4175  -3.3715  -3.3714
     2.8832   2.8832   3.6710   3.6711   4.1196   4.1197   4.4272   4.4272

          k =-0.5012-0.2894-0.5193 ( 44988 PWs)   bands (ev):

   -18.8180 -18.8180 -18.7979 -18.7979  -9.2687  -9.2686  -9.1871  -9.1871
    -9.1671  -9.1670  -8.9051  -8.9048  -8.8907  -8.8904  -8.5492  -8.5491
    -8.4609  -8.4608  -5.4284  -5.4284  -5.0456  -5.0456  -4.6334  -4.6333
    -4.4171  -4.4170  -4.2095  -4.2095  -3.9063  -3.9062  -3.8826  -3.8825
    -3.7240  -3.7240  -3.5210  -3.5210  -3.4175  -3.4175  -3.3715  -3.3714
     2.8832   2.8832   3.6710   3.6711   4.1196   4.1197   4.4272   4.4272

     the Fermi energy is    -1.2092 ev

!    total energy              =    -170.44228470 Ry
     Harris-Foulkes estimate   =    -170.44228470 Ry
     estimated scf accuracy    <          4.3E-09 Ry

     The total energy is the sum of the following terms:

     one-electron contribution =    -124.14951949 Ry
     hartree contribution      =      80.92328830 Ry
     xc contribution           =     -71.35071246 Ry
     ewald contribution        =     -55.86534105 Ry
     smearing contrib. (-TS)   =      -0.00000000 Ry

     convergence has been achieved in  10 iterations

     Forces acting on atoms (Ry/au):

     atom    1 type  1   force =    -0.00000143   -0.00000011   -0.00000001
     atom    2 type  1   force =    -0.00000136   -0.00000022    0.00000001
     atom    3 type  2   force =     0.00000085   -0.00021916    0.00000089
     atom    4 type  2   force =     0.00019028   -0.00010929    0.00000078
     atom    5 type  2   force =     0.00019034    0.00010982    0.00000003
     atom    6 type  2   force =     0.00000049    0.00021933   -0.00000076
     atom    7 type  2   force =    -0.00019007    0.00011068   -0.00000091
     atom    8 type  2   force =    -0.00019074   -0.00011010   -0.00000004
     atom    9 type  3   force =    -0.00000376    0.00134285   -0.00132351
     atom   10 type  3   force =    -0.00116440    0.00066821   -0.00132350
     atom   11 type  3   force =    -0.00116100   -0.00067459   -0.00132383
     atom   12 type  3   force =     0.00000344   -0.00134374   -0.00132453
     atom   13 type  3   force =     0.00116505   -0.00066911   -0.00132434
     atom   14 type  3   force =     0.00116123    0.00067456   -0.00132376
     atom   15 type  3   force =    -0.00000375   -0.00134285    0.00132354
     atom   16 type  3   force =     0.00116091   -0.00067462    0.00132333
     atom   17 type  3   force =     0.00116455    0.00066877    0.00132373
     atom   18 type  3   force =     0.00000309    0.00134367    0.00132451
     atom   19 type  3   force =    -0.00116158    0.00067488    0.00132452
     atom   20 type  3   force =    -0.00116470   -0.00066822    0.00132387
     atom   21 type  3   force =    -0.00141635    0.00010533   -0.00000353
     atom   22 type  3   force =    -0.00079908   -0.00117382   -0.00000362
     atom   23 type  3   force =     0.00061649   -0.00127863   -0.00000382
     atom   24 type  3   force =     0.00141546   -0.00010571   -0.00000390
     atom   25 type  3   force =     0.00079832    0.00117463   -0.00000369
     atom   26 type  3   force =    -0.00061834    0.00127894   -0.00000351
     atom   27 type  3   force =    -0.00141608   -0.00010510    0.00000362
     atom   28 type  3   force =    -0.00061816   -0.00127939    0.00000353
     atom   29 type  3   force =     0.00079857   -0.00117504    0.00000352
     atom   30 type  3   force =     0.00141477    0.00010529    0.00000369
     atom   31 type  3   force =     0.00061619    0.00127852    0.00000391
     atom   32 type  3   force =    -0.00079930    0.00117413    0.00000382
     atom   33 type  3   force =     0.00000170    0.00279282    0.00046398
     atom   34 type  3   force =    -0.00232679    0.00134329    0.00050605
     atom   35 type  3   force =    -0.00232576   -0.00134281    0.00050629
     atom   36 type  3   force =     0.00000189   -0.00279474    0.00046281
     atom   37 type  3   force =     0.00242081   -0.00139585    0.00046308
     atom   38 type  3   force =     0.00241993    0.00139476    0.00046357
     atom   39 type  3   force =    -0.00000018   -0.00268592   -0.00050823
     atom   40 type  3   force =     0.00241943   -0.00139475   -0.00046409
     atom   41 type  3   force =     0.00241788    0.00139860   -0.00046349
     atom   42 type  3   force =     0.00000142    0.00279416   -0.00046315
     atom   43 type  3   force =    -0.00242059    0.00139982   -0.00046031
     atom   44 type  3   force =    -0.00232595   -0.00134255   -0.00050628
     atom   45 type  4   force =    -0.00009614    0.00005710    0.00527355
     atom   46 type  4   force =    -0.00009786   -0.00005498    0.00527255
     atom   47 type  4   force =    -0.00009622   -0.00005733   -0.00527236
     atom   48 type  4   force =     0.00000160   -0.00011177   -0.00527397
     atom   49 type  5   force =     0.00000740   -0.00000406    0.00000003
     atom   50 type  5   force =     0.00000751    0.00000430   -0.00000002

     Total force =     0.016507     Total SCF correction =     0.000041


     entering subroutine stress ...

          total   stress  (Ry/bohr**3)                   (kbar)     P=  -11.59
  -0.00007690  -0.00000002  -0.00000002        -11.31     -0.00     -0.00
  -0.00000002  -0.00007687   0.00000004         -0.00    -11.31      0.01
  -0.00000002   0.00000004  -0.00008269         -0.00      0.01    -12.16


     number of scf cycles    =   2
     number of bfgs steps    =   1

     enthalpy old            =    -170.4396046972 Ry
     enthalpy new            =    -170.4422846993 Ry

     CASE: enthalpy_new < enthalpy_old

     new trust radius        =       0.0479638190 bohr
     new conv_thr            =       0.0000000053 Ry

     new unit-cell volume =   3655.07264 a.u.^3 (   541.62588 Ang^3 )

CELL_PARAMETERS (angstrom)
   8.653998753  -0.000002473  -0.000001609
  -4.327001518   7.494585816   0.000003206
  -0.000001555   0.000002681   8.350933240

ATOMIC_POSITIONS (angstrom)
Li      -0.000001799   0.000000082  -0.000000032
Li      -0.000002498   0.000001287   4.175466645
B        0.000000608   2.431865484   2.087734347
B        6.547941655   1.215933476   6.263199660
B        2.220941867   6.278651261   2.087734911
B        4.326997982   5.062720425   6.263200165
B       -2.220947887   6.278655430   2.087735491
B        2.106051689   1.215931956   6.263199923
H        4.327034205   5.729375910   5.247475563
H       -2.798266080   6.612013453   1.072011032
H        1.528696015   0.882638625   5.247474587
H       -0.000038784   1.765208583   1.072007606
H        7.125263384   0.882570774   5.247472598
H        2.798300508   6.611947330   1.072009174
H        0.000036307   1.765210118   3.103459263
H        7.125300272   0.882637237   7.278924348
H        2.798262342   6.612013437   3.103460634
H        4.326958208   5.729377199   7.278927133
H       -2.798304974   6.611949167   3.103461776
H        1.528733288   0.882574069   7.278925271
H        1.119644336   6.813630487   2.087729819
H        3.313044871   4.376459251   6.263195045
H       -2.133602115   5.057414754   2.087729598
H        3.207349654   0.680955111   6.263193677
H        1.013948962   3.118128019   2.087728191
H        6.460594603   2.437171553   6.263193890
H        5.446645119   0.680955091   6.263204784
H        2.133595536   5.057413242   2.087739990
H        5.340947590   4.376456901   6.263205922
H       -1.119650866   6.813631187   2.087741645
H        2.193397007   2.437172368   6.263206182
H       -1.013953591   3.118127581   2.087740247
H        4.327035460   3.441723400   3.707188275
H       -0.817091692   5.468188734   7.882656265
H        3.509866706   2.026474020   3.707187890
H       -0.000051132   4.052862452   7.882655100
H        5.144094443   2.026387515   3.707187030
H        0.817135655   5.468123279   7.882655993
H        0.000040996   4.052873962   4.643743630
H        5.144137311   2.026462114   0.468278249
H        0.817098014   5.468188492   4.643747109
H        4.326949376   3.441723442   0.468279593
H       -0.817147939   5.468114774   4.643751249
H        3.509910408   2.026398241   0.468278708
N       -0.000048156   4.996419764   8.261504464
N        4.326951540   2.498169207   4.086036427
N        4.326953394   2.498166187   0.089430170
N       -0.000002051   4.996340061   4.264898639
Mg      -0.000034379   4.996408413   2.087734913
Mg       4.326963837   2.498176077   6.263199927



     Writing output data file mgli.save
     NEW-OLD atomic charge density approx. for the potential
     extrapolated charge   79.09157, renormalised to   80.00000

     total cpu time spent up to now is      273.6 secs

     per-process dynamical memory:    62.4 Mb

     Self-consistent Calculation

     iteration #  1     ecut=    80.00 Ry     beta=0.80
     Davidson diagonalization with overlap
     ethr =  1.00E-06,  avg # of iterations =  6.9

     total cpu time spent up to now is      289.3 secs

     total energy              =    -170.41897219 Ry
     Harris-Foulkes estimate   =    -171.36575744 Ry
     estimated scf accuracy    <       0.01797308 Ry

     iteration #  2     ecut=    80.00 Ry     beta=0.80
     Davidson diagonalization with overlap
     ethr =  2.25E-05,  avg # of iterations =  4.1

     total cpu time spent up to now is      302.0 secs

     total energy              =    -170.44119968 Ry
     Harris-Foulkes estimate   =    -170.47487586 Ry
     estimated scf accuracy    <       0.09739726 Ry

     iteration #  3     ecut=    80.00 Ry     beta=0.80
     Davidson diagonalization with overlap
     ethr =  2.25E-05,  avg # of iterations =  3.0

     total cpu time spent up to now is      311.6 secs

     total energy              =    -170.44763862 Ry
     Harris-Foulkes estimate   =    -170.44915199 Ry
     estimated scf accuracy    <       0.01203561 Ry

     iteration #  4     ecut=    80.00 Ry     beta=0.80
     Davidson diagonalization with overlap
     ethr =  1.50E-05,  avg # of iterations =  1.0

     total cpu time spent up to now is      318.2 secs

     total energy              =    -170.44398319 Ry
     Harris-Foulkes estimate   =    -170.44776727 Ry
     estimated scf accuracy    <       0.00791470 Ry

     iteration #  5     ecut=    80.00 Ry     beta=0.80
     Davidson diagonalization with overlap
     ethr =  9.89E-06,  avg # of iterations =  2.0

     total cpu time spent up to now is      326.5 secs

     total energy              =    -170.44553614 Ry
     Harris-Foulkes estimate   =    -170.44553804 Ry
     estimated scf accuracy    <       0.00001001 Ry

     iteration #  6     ecut=    80.00 Ry     beta=0.80
     Davidson diagonalization with overlap
     ethr =  1.25E-08,  avg # of iterations =  3.6

     total cpu time spent up to now is      337.5 secs

     total energy              =    -170.44555336 Ry
     Harris-Foulkes estimate   =    -170.44555059 Ry
     estimated scf accuracy    <       0.00000658 Ry

     iteration #  7     ecut=    80.00 Ry     beta=0.80
     Davidson diagonalization with overlap
     ethr =  8.22E-09,  avg # of iterations =  2.0

     total cpu time spent up to now is      346.5 secs

     total energy              =    -170.44554358 Ry
     Harris-Foulkes estimate   =    -170.44555644 Ry
     estimated scf accuracy    <       0.00002565 Ry

     iteration #  8     ecut=    80.00 Ry     beta=0.80
     Davidson diagonalization with overlap
     ethr =  8.22E-09,  avg # of iterations =  3.0

     total cpu time spent up to now is      356.3 secs

     total energy              =    -170.44554845 Ry
     Harris-Foulkes estimate   =    -170.44554850 Ry
     estimated scf accuracy    <       0.00000013 Ry

     iteration #  9     ecut=    80.00 Ry     beta=0.80
     Davidson diagonalization with overlap
     ethr =  1.61E-10,  avg # of iterations =  2.0

     total cpu time spent up to now is      365.0 secs

     total energy              =    -170.44554847 Ry
     Harris-Foulkes estimate   =    -170.44554848 Ry
     estimated scf accuracy    <       0.00000003 Ry

     iteration # 10     ecut=    80.00 Ry     beta=0.80
     Davidson diagonalization with overlap
     ethr =  3.65E-11,  avg # of iterations =  2.0

     total cpu time spent up to now is      372.2 secs

     total energy              =    -170.44554847 Ry
     Harris-Foulkes estimate   =    -170.44554847 Ry
     estimated scf accuracy    <          6.6E-09 Ry

     iteration # 11     ecut=    80.00 Ry     beta=0.80
     Davidson diagonalization with overlap
     ethr =  8.19E-12,  avg # of iterations =  2.0

     total cpu time spent up to now is      381.2 secs

     End of self-consistent calculation

          k = 0.0000 0.0000 0.0000 ( 45003 PWs)   bands (ev):

   -18.8104 -18.8028 -18.7601 -18.7543  -9.3948  -9.2340  -9.1804  -9.1803
    -9.1415  -9.1414  -8.8330  -8.8329  -8.8157  -8.8155  -8.4655  -8.4654
    -8.4264  -8.4264  -5.8021  -5.5976  -4.9128  -4.8120  -4.5783  -4.5783
    -4.4684  -4.4371  -4.4371  -4.2635  -4.0523  -4.0522  -3.9275  -3.4612
    -3.4436  -3.4436  -3.4279  -3.4278  -3.3612  -3.3217  -3.3216  -3.2815
     2.2734   2.6437   3.3916   4.0069   4.0069   4.1759   4.1759   4.2767

          k =-0.0000 0.0000-0.5213 ( 45010 PWs)   bands (ev):

   -18.7925 -18.7925 -18.7716 -18.7716  -9.3140  -9.3140  -9.1324  -9.1323
    -9.1321  -9.1320  -8.8754  -8.8752  -8.8749  -8.8747  -8.4253  -8.4252
    -8.4250  -8.4250  -5.6523  -5.6523  -5.0226  -5.0226  -4.5382  -4.5381
    -4.5381  -4.5381  -4.1615  -4.1615  -3.8103  -3.8103  -3.7484  -3.7483
    -3.7483  -3.7483  -3.3429  -3.3429  -3.3429  -3.3429  -3.3217  -3.3217
     2.5024   2.5024   3.9409   3.9409   4.2377   4.2377   4.2377   4.2378

          k =-0.0000-0.5809 0.0000 ( 44936 PWs)   bands (ev):

   -18.8079 -18.8054 -18.7581 -18.7562  -9.3854  -9.2545  -9.2489  -9.1208
    -9.0904  -9.0706  -8.8431  -8.8381  -8.8121  -8.8057  -8.5485  -8.5310
    -8.4635  -8.4327  -5.5728  -5.4827  -4.8207  -4.8196  -4.7238  -4.5660
    -4.4543  -4.4313  -4.3493  -4.0492  -4.0265  -3.9425  -3.9035  -3.7311
    -3.6621  -3.6285  -3.5070  -3.4397  -3.4292  -3.4017  -3.3375  -3.2991
     2.7056   2.9246   3.8367   3.8955   3.9587   3.9986   4.1792   4.6467

          k =-0.0000-0.5809-0.5213 ( 44988 PWs)   bands (ev):

   -18.7920 -18.7920 -18.7721 -18.7721  -9.2567  -9.2567  -9.1729  -9.1728
    -9.1455  -9.1454  -8.8641  -8.8638  -8.8504  -8.8501  -8.5111  -8.5110
    -8.4235  -8.4234  -5.4216  -5.4216  -5.0378  -5.0378  -4.6159  -4.6159
    -4.3953  -4.3953  -4.1862  -4.1862  -3.8800  -3.8800  -3.8566  -3.8566
    -3.6960  -3.6960  -3.4891  -3.4891  -3.3831  -3.3831  -3.3384  -3.3384
     2.9334   2.9334   3.7359   3.7359   4.1771   4.1772   4.5059   4.5059

          k = 0.5031-0.2904 0.0000 ( 44936 PWs)   bands (ev):

   -18.8079 -18.8054 -18.7581 -18.7562  -9.3854  -9.2546  -9.2489  -9.1209
    -9.0903  -9.0706  -8.8431  -8.8381  -8.8121  -8.8057  -8.5485  -8.5310
    -8.4635  -8.4327  -5.5728  -5.4827  -4.8207  -4.8196  -4.7237  -4.5660
    -4.4542  -4.4313  -4.3493  -4.0492  -4.0265  -3.9425  -3.9035  -3.7311
    -3.6621  -3.6285  -3.5070  -3.4398  -3.4292  -3.4018  -3.3375  -3.2991
     2.7056   2.9246   3.8367   3.8955   3.9587   3.9986   4.1792   4.6462

          k =-0.5031-0.2904-0.0000 ( 44936 PWs)   bands (ev):

   -18.8079 -18.8054 -18.7581 -18.7562  -9.3854  -9.2546  -9.2488  -9.1209
    -9.0904  -9.0705  -8.8429  -8.8383  -8.8122  -8.8056  -8.5486  -8.5311
    -8.4634  -8.4326  -5.5728  -5.4827  -4.8207  -4.8196  -4.7237  -4.5660
    -4.4542  -4.4313  -4.3493  -4.0492  -4.0265  -3.9425  -3.9035  -3.7311
    -3.6621  -3.6285  -3.5070  -3.4398  -3.4292  -3.4017  -3.3375  -3.2991
     2.7056   2.9246   3.8367   3.8955   3.9587   3.9986   4.1792   4.6459

          k = 0.5031-0.2904-0.5213 ( 44988 PWs)   bands (ev):

   -18.7920 -18.7920 -18.7721 -18.7721  -9.2567  -9.2566  -9.1729  -9.1728
    -9.1455  -9.1453  -8.8641  -8.8638  -8.8504  -8.8501  -8.5111  -8.5110
    -8.4235  -8.4234  -5.4216  -5.4216  -5.0378  -5.0378  -4.6159  -4.6159
    -4.3953  -4.3953  -4.1862  -4.1862  -3.8800  -3.8800  -3.8567  -3.8567
    -3.6960  -3.6960  -3.4892  -3.4891  -3.3831  -3.3831  -3.3384  -3.3384
     2.9334   2.9334   3.7359   3.7359   4.1772   4.1772   4.5059   4.5059

          k =-0.5031-0.2904-0.5213 ( 44988 PWs)   bands (ev):

   -18.7920 -18.7920 -18.7721 -18.7721  -9.2567  -9.2567  -9.1730  -9.1728
    -9.1455  -9.1452  -8.8640  -8.8636  -8.8506  -8.8501  -8.5113  -8.5110
    -8.4235  -8.4232  -5.4216  -5.4216  -5.0378  -5.0378  -4.6159  -4.6159
    -4.3953  -4.3953  -4.1862  -4.1862  -3.8800  -3.8800  -3.8567  -3.8567
    -3.6960  -3.6960  -3.4891  -3.4891  -3.3831  -3.3831  -3.3384  -3.3384
     2.9334   2.9334   3.7359   3.7359   4.1772   4.1772   4.5059   4.5059

     the Fermi energy is    -1.1495 ev

!    total energy              =    -170.44554847 Ry
     Harris-Foulkes estimate   =    -170.44554847 Ry
     estimated scf accuracy    <          1.9E-10 Ry

     The total energy is the sum of the following terms:

     one-electron contribution =    -123.39794384 Ry
     hartree contribution      =      80.66750771 Ry
     xc contribution           =     -71.42025062 Ry
     ewald contribution        =     -56.29486172 Ry
     smearing contrib. (-TS)   =      -0.00000000 Ry

     convergence has been achieved in  11 iterations

     Forces acting on atoms (Ry/au):

     atom    1 type  1   force =    -0.00000041    0.00000023    0.00000000
     atom    2 type  1   force =    -0.00000040    0.00000021   -0.00000000
     atom    3 type  2   force =    -0.00000204   -0.00070094   -0.00000193
     atom    4 type  2   force =     0.00060600   -0.00035098   -0.00000162
     atom    5 type  2   force =     0.00060533    0.00035053   -0.00000001
     atom    6 type  2   force =    -0.00000092    0.00070041    0.00000161
     atom    7 type  2   force =    -0.00060682    0.00034905    0.00000193
     atom    8 type  2   force =    -0.00060605   -0.00034994    0.00000001
     atom    9 type  3   force =    -0.00000274    0.00260154   -0.00344376
     atom   10 type  3   force =    -0.00225476    0.00129875   -0.00344437
     atom   11 type  3   force =    -0.00225212   -0.00130339   -0.00344404
     atom   12 type  3   force =     0.00000265   -0.00260079   -0.00344242
     atom   13 type  3   force =     0.00225347   -0.00129764   -0.00344211
     atom   14 type  3   force =     0.00225115    0.00130330   -0.00344317
     atom   15 type  3   force =    -0.00000271   -0.00260152    0.00344360
     atom   16 type  3   force =     0.00225157   -0.00130314    0.00344371
     atom   17 type  3   force =     0.00225419    0.00129805    0.00344318
     atom   18 type  3   force =     0.00000298    0.00260044    0.00344216
     atom   19 type  3   force =    -0.00225144    0.00130303    0.00344318
     atom   20 type  3   force =    -0.00225480   -0.00129874    0.00344404
     atom   21 type  3   force =    -0.00326008    0.00159232   -0.00000293
     atom   22 type  3   force =    -0.00300974   -0.00202733   -0.00000308
     atom   23 type  3   force =     0.00025010   -0.00361904   -0.00000282
     atom   24 type  3   force =     0.00325932   -0.00159287   -0.00000290
     atom   25 type  3   force =     0.00301039    0.00202894   -0.00000333
     atom   26 type  3   force =    -0.00025201    0.00362078   -0.00000309
     atom   27 type  3   force =    -0.00326052   -0.00159285    0.00000308
     atom   28 type  3   force =    -0.00025192   -0.00362038    0.00000293
     atom   29 type  3   force =     0.00300976   -0.00202870    0.00000309
     atom   30 type  3   force =     0.00326058    0.00159326    0.00000333
     atom   31 type  3   force =     0.00025022    0.00361905    0.00000290
     atom   32 type  3   force =    -0.00300908    0.00202672    0.00000282
     atom   33 type  3   force =    -0.00000745    0.00300130    0.00089721
     atom   34 type  3   force =    -0.00270177    0.00156010    0.00084509
     atom   35 type  3   force =    -0.00270338   -0.00156033    0.00084475
     atom   36 type  3   force =    -0.00000761   -0.00299651    0.00089939
     atom   37 type  3   force =     0.00259139   -0.00150448    0.00089938
     atom   38 type  3   force =     0.00259591    0.00150757    0.00089708
     atom   39 type  3   force =     0.00000014   -0.00312025   -0.00084634
     atom   40 type  3   force =     0.00259569   -0.00150719   -0.00089707
     atom   41 type  3   force =     0.00260354    0.00149452   -0.00089703
     atom   42 type  3   force =    -0.00000721    0.00299655   -0.00089937
     atom   43 type  3   force =    -0.00259809    0.00149133   -0.00089830
     atom   44 type  3   force =    -0.00270283   -0.00156092   -0.00084483
     atom   45 type  4   force =     0.00011476   -0.00007185    0.00152501
     atom   46 type  4   force =     0.00012072    0.00006441    0.00152522
     atom   47 type  4   force =     0.00011569    0.00007235   -0.00152527
     atom   48 type  4   force =    -0.00000630    0.00013716   -0.00152491
     atom   49 type  5   force =     0.00000450   -0.00000394    0.00000001
     atom   50 type  5   force =     0.00000318    0.00000181   -0.00000000

     Total force =     0.022672     Total SCF correction =     0.000013


     entering subroutine stress ...

          total   stress  (Ry/bohr**3)                   (kbar)     P=   -8.38
  -0.00005728   0.00000003   0.00000002         -8.43      0.00      0.00
   0.00000003  -0.00005731  -0.00000004          0.00     -8.43     -0.01
   0.00000002  -0.00000004  -0.00005635          0.00     -0.01     -8.29


     number of scf cycles    =   3
     number of bfgs steps    =   2

     enthalpy old            =    -170.4422846993 Ry
     enthalpy new            =    -170.4455484706 Ry

     CASE: enthalpy_new < enthalpy_old

     new trust radius        =       0.0718239351 bohr
     new conv_thr            =       0.0000000036 Ry

     new unit-cell volume =   3591.94865 a.u.^3 (   532.27187 Ang^3 )

CELL_PARAMETERS (angstrom)
   8.604544692   0.000007506   0.000007176
  -4.302265845   7.451742119  -0.000014269
   0.000006929  -0.000011909   8.301328156

ATOMIC_POSITIONS (angstrom)
Li      -0.000003063   0.000000356  -0.000000050
Li       0.000000531  -0.000005823   4.150664116
B        0.000004712   2.417310656   2.075327175
B        6.511093593   1.208654601   6.225999198
B        2.208822009   6.243086459   2.075324923
B        4.302283055   5.034426383   6.225993057
B       -2.208811706   6.243085935   2.075322675
B        2.093459729   1.208647207   6.225996135
H        4.302313409   5.699312185   5.213284197
H       -2.784597891   6.575554497   1.062613206
H        1.517640044   0.876236723   5.213288687
H       -0.000030392   1.752427797   1.062622089
H        7.086882795   0.876185363   5.213293533
H        2.784643925   6.575504786   1.062617592
H        0.000035784   1.752425558   3.088036713
H        7.086916717   0.876238175   7.238708201
H        2.784613647   6.575557272   3.088032275
H        4.302250736   5.699309235   7.238698593
H       -2.784629036   6.575496054   3.088027669
H        1.517673854   0.876178205   7.238703558
H        1.110258110   6.775508359   2.075312363
H        3.291908444   4.349253667   6.225981287
H       -2.120619816   5.025492226   2.075311891
H        3.192024388   0.676228255   6.225986337
H        1.010374999   3.102487344   2.075316468
H        6.422899018   2.426247405   6.225986709
H        5.412528886   0.676231123   6.226010963
H        2.120625986   5.025494417   2.075337478
H        5.312651944   4.349251552   6.226005539
H       -1.110245172   6.775507333   2.075333391
H        2.181653512   2.426241614   6.226005937
H       -1.010368215   3.102482080   2.075337957
H        4.302305645   3.426091199   3.686373642
H       -0.816007182   5.438996167   7.836977891
H        3.486214986   2.012810206   3.686322219
H       -0.000048479   4.025644379   7.837034051
H        5.118196506   2.012776380   3.686377327
H        0.815976184   5.438885073   7.837031559
H        0.000050131   4.025543748   4.614994201
H        5.118239150   2.012854122   0.464290487
H        0.815945677   5.438937990   4.614946542
H        4.302216922   3.426093260   0.464286845
H       -0.815969286   5.438860329   4.614949830
H        3.486255555   2.012740082   0.464341804
N        0.000080905   4.967775564   8.218453146
N        4.302351148   2.483952368   4.067796878
N        4.302345014   2.483962498   0.082867154
N        0.000002424   4.967911057   4.233525079
Mg      -0.000016772   4.967838311   2.075324922
Mg       4.302253910   2.483894995   6.225996145



     Writing output data file mgli.save
     NEW-OLD atomic charge density approx. for the potential
     extrapolated charge   78.59431, renormalised to   80.00000

     total cpu time spent up to now is      399.5 secs

     per-process dynamical memory:    62.4 Mb

     Self-consistent Calculation

     iteration #  1     ecut=    80.00 Ry     beta=0.80
     Davidson diagonalization with overlap
     c_bands:  1 eigenvalues not converged
     c_bands:  1 eigenvalues not converged
     ethr =  1.00E-06,  avg # of iterations = 11.4

     total cpu time spent up to now is      418.1 secs

     total energy              =    -170.38745677 Ry
     Harris-Foulkes estimate   =    -171.85644197 Ry
     estimated scf accuracy    <       0.04146894 Ry

     iteration #  2     ecut=    80.00 Ry     beta=0.80
     Davidson diagonalization with overlap
     ethr =  5.18E-05,  avg # of iterations =  4.1

     total cpu time spent up to now is      430.7 secs

     total energy              =    -170.43923176 Ry
     Harris-Foulkes estimate   =    -170.51814850 Ry
     estimated scf accuracy    <       0.22926779 Ry

     iteration #  3     ecut=    80.00 Ry     beta=0.80
     Davidson diagonalization with overlap
     ethr =  5.18E-05,  avg # of iterations =  3.0

     total cpu time spent up to now is      440.4 secs

     total energy              =    -170.45545728 Ry
     Harris-Foulkes estimate   =    -170.45789616 Ry
     estimated scf accuracy    <       0.02848514 Ry

     iteration #  4     ecut=    80.00 Ry     beta=0.80
     Davidson diagonalization with overlap
     ethr =  3.56E-05,  avg # of iterations =  1.0

     total cpu time spent up to now is      446.9 secs

     total energy              =    -170.44566262 Ry
     Harris-Foulkes estimate   =    -170.45562909 Ry
     estimated scf accuracy    <       0.02180433 Ry

     iteration #  5     ecut=    80.00 Ry     beta=0.80
     Davidson diagonalization with overlap
     ethr =  2.73E-05,  avg # of iterations =  2.0

     total cpu time spent up to now is      455.2 secs

     total energy              =    -170.44932338 Ry
     Harris-Foulkes estimate   =    -170.44937778 Ry
     estimated scf accuracy    <       0.00012958 Ry

     iteration #  6     ecut=    80.00 Ry     beta=0.80
     Davidson diagonalization with overlap
     ethr =  1.62E-07,  avg # of iterations =  4.5

     total cpu time spent up to now is      466.7 secs

     total energy              =    -170.44938997 Ry
     Harris-Foulkes estimate   =    -170.44938438 Ry
     estimated scf accuracy    <       0.00000849 Ry

     iteration #  7     ecut=    80.00 Ry     beta=0.80
     Davidson diagonalization with overlap
     ethr =  1.06E-08,  avg # of iterations =  3.0

     total cpu time spent up to now is      477.8 secs

     total energy              =    -170.44937183 Ry
     Harris-Foulkes estimate   =    -170.44939943 Ry
     estimated scf accuracy    <       0.00005639 Ry

     iteration #  8     ecut=    80.00 Ry     beta=0.80
     Davidson diagonalization with overlap
     ethr =  1.06E-08,  avg # of iterations =  3.0

     total cpu time spent up to now is      488.4 secs

     total energy              =    -170.44938215 Ry
     Harris-Foulkes estimate   =    -170.44938217 Ry
     estimated scf accuracy    <       0.00000006 Ry

     iteration #  9     ecut=    80.00 Ry     beta=0.80
     Davidson diagonalization with overlap
     ethr =  7.31E-11,  avg # of iterations =  3.0

     total cpu time spent up to now is      499.0 secs

     total energy              =    -170.44938217 Ry
     Harris-Foulkes estimate   =    -170.44938221 Ry
     estimated scf accuracy    <       0.00000013 Ry

     iteration # 10     ecut=    80.00 Ry     beta=0.80
     Davidson diagonalization with overlap
     ethr =  7.31E-11,  avg # of iterations =  2.0

     total cpu time spent up to now is      507.1 secs

     total energy              =    -170.44938216 Ry
     Harris-Foulkes estimate   =    -170.44938217 Ry
     estimated scf accuracy    <       0.00000002 Ry

     iteration # 11     ecut=    80.00 Ry     beta=0.80
     Davidson diagonalization with overlap
     ethr =  2.88E-11,  avg # of iterations =  2.0

     total cpu time spent up to now is      515.3 secs

     End of self-consistent calculation

          k = 0.0000 0.0000 0.0000 ( 45003 PWs)   bands (ev):

   -18.7671 -18.7589 -18.7142 -18.7080  -9.3814  -9.2165  -9.1482  -9.1480
    -9.1056  -9.1054  -8.7741  -8.7736  -8.7559  -8.7554  -8.4060  -8.4058
    -8.3685  -8.3684  -5.7918  -5.5781  -4.8874  -4.7814  -4.5517  -4.5517
    -4.4382  -4.4029  -4.4029  -4.2264  -4.0157  -4.0157  -3.8831  -3.4067
    -3.3914  -3.3914  -3.3722  -3.3721  -3.3018  -3.2667  -3.2667  -3.2191
     2.3649   2.7191   3.4791   4.1017   4.1017   4.2382   4.2383   4.4253

          k = 0.0000-0.0000-0.5244 ( 45010 PWs)   bands (ev):

   -18.7477 -18.7477 -18.7267 -18.7267  -9.2984  -9.2984  -9.0986  -9.0984
    -9.0980  -9.0978  -8.8182  -8.8177  -8.8169  -8.8165  -8.3650  -8.3648
    -8.3644  -8.3642  -5.6388  -5.6388  -4.9954  -4.9953  -4.5088  -4.5088
    -4.5088  -4.5087  -4.1218  -4.1218  -3.7658  -3.7658  -3.7026  -3.7025
    -3.7025  -3.7025  -3.2878  -3.2878  -3.2877  -3.2877  -3.2609  -3.2609
     2.5784   2.5784   4.0873   4.0873   4.3223   4.3224   4.3226   4.3227

          k = 0.0000-0.5842-0.0000 ( 44936 PWs)   bands (ev):

   -18.7644 -18.7617 -18.7121 -18.7100  -9.3659  -9.2354  -9.2195  -9.0976
    -9.0566  -9.0312  -8.7846  -8.7797  -8.7519  -8.7448  -8.4929  -8.4717
    -8.4068  -8.3723  -5.5543  -5.4589  -4.7904  -4.7896  -4.6995  -4.5390
    -4.4217  -4.3984  -4.3144  -4.0123  -3.9901  -3.9003  -3.8592  -3.6873
    -3.6169  -3.5762  -3.4534  -3.3836  -3.3737  -3.3463  -3.2780  -3.2424
     2.7970   3.0145   3.9397   3.9879   4.0503   4.0757   4.2738   4.7568

          k = 0.0000-0.5842-0.5244 ( 44988 PWs)   bands (ev):

   -18.7471 -18.7471 -18.7273 -18.7273  -9.2353  -9.2352  -9.1471  -9.1470
    -9.1120  -9.1117  -8.8058  -8.8052  -8.7926  -8.7920  -8.4516  -8.4512
    -8.3630  -8.3627  -5.3997  -5.3996  -5.0117  -5.0117  -4.5877  -4.5877
    -4.3619  -4.3619  -4.1499  -4.1499  -3.8384  -3.8384  -3.8139  -3.8139
    -3.6484  -3.6484  -3.4355  -3.4355  -3.3254  -3.3254  -3.2822  -3.2821
     3.0183   3.0183   3.8356   3.8357   4.2646   4.2648   4.6256   4.6256

          k = 0.5060-0.2921-0.0000 ( 44936 PWs)   bands (ev):

   -18.7644 -18.7617 -18.7121 -18.7100  -9.3659  -9.2354  -9.2195  -9.0976
    -9.0566  -9.0312  -8.7846  -8.7797  -8.7519  -8.7448  -8.4929  -8.4717
    -8.4067  -8.3723  -5.5543  -5.4589  -4.7904  -4.7896  -4.6995  -4.5390
    -4.4217  -4.3984  -4.3145  -4.0123  -3.9901  -3.9003  -3.8592  -3.6873
    -3.6169  -3.5762  -3.4534  -3.3836  -3.3737  -3.3463  -3.2780  -3.2424
     2.7970   3.0145   3.9397   3.9879   4.0503   4.0757   4.2738   4.6902

          k =-0.5060-0.2921 0.0000 ( 44936 PWs)   bands (ev):

   -18.7644 -18.7617 -18.7121 -18.7100  -9.3658  -9.2354  -9.2197  -9.0976
    -9.0564  -9.0314  -8.7849  -8.7794  -8.7515  -8.7452  -8.4927  -8.4715
    -8.4069  -8.3725  -5.5543  -5.4589  -4.7904  -4.7896  -4.6995  -4.5390
    -4.4217  -4.3984  -4.3145  -4.0123  -3.9901  -3.9003  -3.8592  -3.6873
    -3.6169  -3.5763  -3.4534  -3.3836  -3.3737  -3.3463  -3.2780  -3.2424
     2.7970   3.0145   3.9397   3.9878   4.0503   4.0757   4.2739   4.6903

          k = 0.5060-0.2921-0.5244 ( 44988 PWs)   bands (ev):

   -18.7471 -18.7471 -18.7273 -18.7273  -9.2353  -9.2351  -9.1471  -9.1471
    -9.1120  -9.1117  -8.8058  -8.8052  -8.7926  -8.7920  -8.4516  -8.4513
    -8.3630  -8.3627  -5.3996  -5.3996  -5.0117  -5.0117  -4.5877  -4.5877
    -4.3619  -4.3619  -4.1499  -4.1499  -3.8385  -3.8384  -3.8139  -3.8139
    -3.6484  -3.6484  -3.4356  -3.4355  -3.3254  -3.3254  -3.2822  -3.2821
     3.0183   3.0183   3.8356   3.8357   4.2646   4.2649   4.6256   4.6256

          k =-0.5060-0.2921-0.5244 ( 44988 PWs)   bands (ev):

   -18.7471 -18.7471 -18.7273 -18.7273  -9.2353  -9.2350  -9.1471  -9.1470
    -9.1123  -9.1118  -8.8064  -8.8052  -8.7926  -8.7914  -8.4516  -8.4509
    -8.3633  -8.3627  -5.3997  -5.3996  -5.0117  -5.0117  -4.5877  -4.5877
    -4.3619  -4.3619  -4.1499  -4.1499  -3.8385  -3.8384  -3.8140  -3.8139
    -3.6484  -3.6484  -3.4356  -3.4355  -3.3254  -3.3254  -3.2822  -3.2821
     3.0183   3.0183   3.8356   3.8357   4.2646   4.2648   4.6256   4.6256

     the Fermi energy is    -1.0561 ev

!    total energy              =    -170.44938217 Ry
     Harris-Foulkes estimate   =    -170.44938217 Ry
     estimated scf accuracy    <          3.6E-10 Ry

     The total energy is the sum of the following terms:

     one-electron contribution =    -122.03931293 Ry
     hartree contribution      =      80.17227999 Ry
     xc contribution           =     -71.51040619 Ry
     ewald contribution        =     -57.07194303 Ry
     smearing contrib. (-TS)   =      -0.00000000 Ry

     convergence has been achieved in  11 iterations

     Forces acting on atoms (Ry/au):

     atom    1 type  1   force =    -0.00000125   -0.00000049   -0.00000000
     atom    2 type  1   force =    -0.00000119   -0.00000060    0.00000000
     atom    3 type  2   force =     0.00000092   -0.00146442    0.00000342
     atom    4 type  2   force =     0.00126865   -0.00073268    0.00000251
     atom    5 type  2   force =     0.00126904    0.00073461    0.00000002
     atom    6 type  2   force =    -0.00000007    0.00146530   -0.00000250
     atom    7 type  2   force =    -0.00126513    0.00073342   -0.00000343
     atom    8 type  2   force =    -0.00126675   -0.00073148   -0.00000002
     atom    9 type  3   force =    -0.00000177    0.00370780   -0.00538555
     atom   10 type  3   force =    -0.00321303    0.00185292   -0.00538692
     atom   11 type  3   force =    -0.00321101   -0.00185638   -0.00538744
     atom   12 type  3   force =     0.00000220   -0.00370944   -0.00538803
     atom   13 type  3   force =     0.00321341   -0.00185384   -0.00538830
     atom   14 type  3   force =     0.00321082    0.00185509   -0.00538641
     atom   15 type  3   force =    -0.00000178   -0.00370769    0.00538559
     atom   16 type  3   force =     0.00321011   -0.00185550    0.00538559
     atom   17 type  3   force =     0.00321201    0.00185300    0.00538639
     atom   18 type  3   force =     0.00000131    0.00370982    0.00538825
     atom   19 type  3   force =    -0.00321257    0.00185724    0.00538937
     atom   20 type  3   force =    -0.00321311   -0.00185277    0.00538746
     atom   21 type  3   force =    -0.00476698    0.00323021   -0.00000195
     atom   22 type  3   force =    -0.00518031   -0.00251334   -0.00000182
     atom   23 type  3   force =    -0.00041333   -0.00574406   -0.00000234
     atom   24 type  3   force =     0.00476739   -0.00323048   -0.00000242
     atom   25 type  3   force =     0.00518032    0.00251307   -0.00000163
     atom   26 type  3   force =     0.00041354    0.00574341   -0.00000168
     atom   27 type  3   force =    -0.00476675   -0.00322971    0.00000183
     atom   28 type  3   force =     0.00041355   -0.00574453    0.00000195
     atom   29 type  3   force =     0.00518077   -0.00251360    0.00000168
     atom   30 type  3   force =     0.00476542    0.00322979    0.00000163
     atom   31 type  3   force =    -0.00041388    0.00574381    0.00000241
     atom   32 type  3   force =    -0.00518094    0.00251416    0.00000233
     atom   33 type  3   force =     0.00001709    0.00398073    0.00087934
     atom   34 type  3   force =    -0.00316319    0.00182591    0.00102135
     atom   35 type  3   force =    -0.00315978   -0.00182539    0.00102207
     atom   36 type  3   force =     0.00001658   -0.00399290    0.00087334
     atom   37 type  3   force =     0.00346621   -0.00198295    0.00087332
     atom   38 type  3   force =     0.00345427    0.00197444    0.00087952
     atom   39 type  3   force =    -0.00000062   -0.00365052   -0.00102283
     atom   40 type  3   force =     0.00345529   -0.00197537   -0.00087952
     atom   41 type  3   force =     0.00343652    0.00200461   -0.00087962
     atom   42 type  3   force =     0.00001592    0.00399337   -0.00087342
     atom   43 type  3   force =    -0.00345172    0.00201229   -0.00087153
     atom   44 type  3   force =    -0.00316097   -0.00182420   -0.00102188
     atom   45 type  4   force =    -0.00031112    0.00019475   -0.00254680
     atom   46 type  4   force =    -0.00032737   -0.00017519   -0.00254740
     atom   47 type  4   force =    -0.00031440   -0.00019603    0.00254751
     atom   48 type  4   force =     0.00001552   -0.00036964    0.00254654
     atom   49 type  5   force =     0.00000488   -0.00000082    0.00000003
     atom   50 type  5   force =     0.00000731    0.00000425   -0.00000002

     Total force =     0.033784     Total SCF correction =     0.000032


     entering subroutine stress ...

          total   stress  (Ry/bohr**3)                   (kbar)     P=   -4.10
  -0.00003107  -0.00000008  -0.00000007         -4.57     -0.01     -0.01
  -0.00000008  -0.00003098   0.00000012         -0.01     -4.56      0.02
  -0.00000007   0.00000012  -0.00002161         -0.01      0.02     -3.18


     number of scf cycles    =   4
     number of bfgs steps    =   3

     enthalpy old            =    -170.4455484706 Ry
     enthalpy new            =    -170.4493821682 Ry

     CASE: enthalpy_new < enthalpy_old

     new trust radius        =       0.1074397375 bohr
     new conv_thr            =       0.0000000057 Ry

     new unit-cell volume =   3496.25592 a.u.^3 (   518.09167 Ang^3 )

CELL_PARAMETERS (angstrom)
   8.527419236  -0.000016641  -0.000014379
  -4.263724029   7.384984366   0.000028692
  -0.000013896   0.000023996   8.226969790

ATOMIC_POSITIONS (angstrom)
Li      -0.000006065   0.000000139  -0.000000090
Li      -0.000012746   0.000011678   4.113484962
B       -0.000005524   2.393786103   2.056750449
B        6.454336642   1.196896842   6.170221437
B        2.190624471   6.188087253   2.056756761
B        4.263691408   4.991205341   6.170233113
B       -2.190658654   6.188100579   2.056763171
B        2.073052234   1.196900327   6.170227334
H        4.263712680   5.653860929   5.159708961
H       -2.764518851   6.519443919   1.046237632
H        1.499170387   0.865592589   5.159697773
H       -0.000029295   1.731122307   1.046217266
H        7.028205451   0.865539750   5.159687703
H        2.764514052   6.519393559   1.046228198
H        0.000014119   1.731130955   3.067274934
H        7.028224141   0.865587649   7.180745975
H        2.764486962   6.519440493   3.067285322
H        4.263661832   5.653868695   7.180766447
H       -2.764548088   6.519410604   3.067297404
H        1.499190089   0.865558470   7.180756885
H        1.093841556   6.717700513   2.056740792
H        3.256645970   4.306171563   6.170214418
H       -2.100920382   4.973451784   2.056740316
H        3.169834849   0.667289248   6.170203223
H        1.007031323   3.078825080   2.056728898
H        6.364591342   2.411542167   6.170203855
H        5.357556760   0.667287154   6.170240154
H        2.100884487   4.973441063   2.056772731
H        5.270732184   4.306161255   6.170250661
H       -1.093879952   6.717705798   2.056784708
H        2.162786455   2.411547610   6.170251442
H       -1.007054583   3.078824559   2.056773321
H        4.263729435   3.403195644   3.655465173
H       -0.815281746   5.394080698   7.769007704
H        3.448400964   1.990998074   3.655506253
H       -0.000073625   3.981797104   7.768954203
H        5.079072256   1.990841537   3.655455165
H        0.815383299   5.394076096   7.768961422
H        0.000026092   3.981928046   4.571464788
H        5.079112824   1.990911496   0.458019496
H        0.815354455   5.394125512   4.571521944
H        4.263648437   3.403195234   0.458029673
H       -0.815445285   5.394059831   4.571540255
H        3.448448157   1.990915729   0.457978631
N       -0.000164346   4.923433336   8.151420777
N        4.263546025   2.461583564   4.037922529
N        4.263561462   2.461557669   0.075562170
N       -0.000009760   4.923166296   4.189062914
Mg      -0.000018715   4.923324398   2.056756802
Mg       4.263686158   2.461663263   6.170227314



     Writing output data file mgli.save
     NEW-OLD atomic charge density approx. for the potential

     Check: negative/imaginary core charge=   -0.000001    0.000000
     extrapolated charge   77.81072, renormalised to   80.00000

     total cpu time spent up to now is      533.6 secs

     per-process dynamical memory:    62.4 Mb

     Self-consistent Calculation

     iteration #  1     ecut=    80.00 Ry     beta=0.80
     Davidson diagonalization with overlap
     c_bands:  1 eigenvalues not converged
     ethr =  1.00E-06,  avg # of iterations = 10.8

     total cpu time spent up to now is      553.1 secs

     total energy              =    -170.30927402 Ry
     Harris-Foulkes estimate   =    -172.59482778 Ry
     estimated scf accuracy    <       0.09534598 Ry

     iteration #  2     ecut=    80.00 Ry     beta=0.80
     Davidson diagonalization with overlap
     ethr =  1.19E-04,  avg # of iterations =  3.9

     total cpu time spent up to now is      565.3 secs

     total energy              =    -170.42969617 Ry
     Harris-Foulkes estimate   =    -170.61423532 Ry
     estimated scf accuracy    <       0.53911699 Ry

     iteration #  3     ecut=    80.00 Ry     beta=0.80
     Davidson diagonalization with overlap
     ethr =  1.19E-04,  avg # of iterations =  3.0

     total cpu time spent up to now is      575.2 secs

     total energy              =    -170.46988706 Ry
     Harris-Foulkes estimate   =    -170.47347527 Ry
     estimated scf accuracy    <       0.06731899 Ry

     iteration #  4     ecut=    80.00 Ry     beta=0.80
     Davidson diagonalization with overlap
     ethr =  8.41E-05,  avg # of iterations =  1.0

     total cpu time spent up to now is      581.8 secs

     total energy              =    -170.44606135 Ry
     Harris-Foulkes estimate   =    -170.47010042 Ry
     estimated scf accuracy    <       0.05743247 Ry

     iteration #  5     ecut=    80.00 Ry     beta=0.80
     Davidson diagonalization with overlap
     ethr =  7.18E-05,  avg # of iterations =  2.0

     total cpu time spent up to now is      589.7 secs

     total energy              =    -170.45269274 Ry
     Harris-Foulkes estimate   =    -170.45372620 Ry
     estimated scf accuracy    <       0.00180956 Ry

     iteration #  6     ecut=    80.00 Ry     beta=0.80
     Davidson diagonalization with overlap
     ethr =  2.26E-06,  avg # of iterations =  4.4

     total cpu time spent up to now is      601.3 secs

     total energy              =    -170.45338095 Ry
     Harris-Foulkes estimate   =    -170.45338810 Ry
     estimated scf accuracy    <       0.00017251 Ry

     iteration #  7     ecut=    80.00 Ry     beta=0.80
     Davidson diagonalization with overlap
     ethr =  2.16E-07,  avg # of iterations =  1.0

     total cpu time spent up to now is      607.9 secs

     total energy              =    -170.45340724 Ry
     Harris-Foulkes estimate   =    -170.45338321 Ry
     estimated scf accuracy    <       0.00015372 Ry

     iteration #  8     ecut=    80.00 Ry     beta=0.80
     Davidson diagonalization with overlap
     ethr =  1.92E-07,  avg # of iterations =  1.0

     total cpu time spent up to now is      614.4 secs

     total energy              =    -170.45329610 Ry
     Harris-Foulkes estimate   =    -170.45340886 Ry
     estimated scf accuracy    <       0.00022737 Ry

     iteration #  9     ecut=    80.00 Ry     beta=0.80
     Davidson diagonalization with overlap
     ethr =  1.92E-07,  avg # of iterations =  2.0

     total cpu time spent up to now is      623.5 secs

     total energy              =    -170.45333760 Ry
     Harris-Foulkes estimate   =    -170.45334351 Ry
     estimated scf accuracy    <       0.00001370 Ry

     iteration # 10     ecut=    80.00 Ry     beta=0.80
     Davidson diagonalization with overlap
     ethr =  1.71E-08,  avg # of iterations =  2.0

     total cpu time spent up to now is      632.2 secs

     total energy              =    -170.45333944 Ry
     Harris-Foulkes estimate   =    -170.45333964 Ry
     estimated scf accuracy    <       0.00000209 Ry

     iteration # 11     ecut=    80.00 Ry     beta=0.80
     Davidson diagonalization with overlap
     ethr =  2.62E-09,  avg # of iterations =  2.0

     total cpu time spent up to now is      640.9 secs

     total energy              =    -170.45333934 Ry
     Harris-Foulkes estimate   =    -170.45333981 Ry
     estimated scf accuracy    <       0.00000169 Ry

     iteration # 12     ecut=    80.00 Ry     beta=0.80
     Davidson diagonalization with overlap
     ethr =  2.11E-09,  avg # of iterations =  1.0

     total cpu time spent up to now is      647.5 secs

     total energy              =    -170.45333921 Ry
[...]
         9           H   tau(   9) = (   0.4771547   0.6393840   0.5744969  )
        10           H   tau(  10) = (  -0.3151441   0.7329199   0.1134541  )
        11           H   tau(  11) = (   0.1620047   0.0935379   0.5744962  )
        12           H   tau(  12) = (  -0.0000032   0.1870688   0.1134534  )
        13           H   tau(  13) = (   0.7922965   0.0935330   0.5744963  )
        14           H   tau(  14) = (   0.3151473   0.7329158   0.1134538  )
        15           H   tau(  15) = (   0.0000025   0.1870696   0.3475905  )
        16           H   tau(  16) = (   0.7922990   0.0935380   0.8086333  )
        17           H   tau(  17) = (   0.3151445   0.7329205   0.3475909  )
        18           H   tau(  18) = (   0.4771492   0.6393843   0.8086339  )
        19           H   tau(  19) = (  -0.3151476   0.7329155   0.3475915  )
        20           H   tau(  20) = (   0.1620075   0.0935331   0.8086339  )
        21           H   tau(  21) = (   0.1237519   0.7574162   0.2305206  )
        22           H   tau(  22) = (   0.3602392   0.4858812   0.6915637  )
        23           H   tau(  23) = (  -0.2406654   0.5549166   0.2305213  )
        24           H   tau(  24) = (   0.3533997   0.0690369   0.6915631  )
        25           H   tau(  25) = (   0.1169128   0.3405723   0.2305194  )
        26           H   tau(  26) = (   0.7178169   0.2715371   0.6915627  )
        27           H   tau(  27) = (   0.6009039   0.0690376   0.6915664  )
        28           H   tau(  28) = (   0.2406649   0.5549167   0.2305242  )
        29           H   tau(  29) = (   0.5940654   0.4858810   0.6915675  )
        30           H   tau(  30) = (  -0.1237521   0.7574160   0.2305253  )
        31           H   tau(  31) = (   0.2364864   0.2715364   0.6915671  )
        32           H   tau(  32) = (  -0.1169135   0.3405719   0.2305234  )
        33           H   tau(  33) = (   0.4771550   0.3843266   0.4008019  )
        34           H   tau(  34) = (  -0.0942599   0.6053955   0.8618446  )
        35           H   tau(  35) = (   0.3828882   0.2210668   0.4007999  )
        36           H   tau(  36) = (  -0.0000059   0.4421282   0.8618451  )
        37           H   tau(  37) = (   0.5714087   0.2210595   0.4008010  )
        38           H   tau(  38) = (   0.0942607   0.6053878   0.8618458  )
        39           H   tau(  39) = (   0.0000046   0.4421246   0.5212869  )
        40           H   tau(  40) = (   0.5714137   0.2210656   0.0602415  )
        41           H   tau(  41) = (   0.0942583   0.6053920   0.5212858  )
        42           H   tau(  42) = (   0.4771471   0.3843253   0.0602424  )
        43           H   tau(  43) = (  -0.0942620   0.6053845   0.5212865  )
        44           H   tau(  44) = (   0.3828931   0.2210581   0.0602434  )
        45           N   tau(  45) = (  -0.0000021   0.5509706   0.9044646  )
        46           N   tau(  46) = (   0.4771504   0.2754839   0.4434204  )
        47           N   tau(  47) = (   0.4771508   0.2754830   0.0176230  )
        48           N   tau(  48) = (   0.0000002   0.5509667   0.4786669  )
        49           Mg  tau(  49) = (  -0.0000002   0.5509683   0.2305224  )
        50           Mg  tau(  50) = (   0.4771511   0.2754845   0.6915651  )

     number of k points=     8  gaussian smearing, width (Ry)=  0.0050
                       cart. coord. in units 2pi/alat
        k(    1) = (   0.0000000   0.0000000   0.0000000), wk =   0.2500000
        k(    2) = (  -0.0000004   0.0000007  -0.5422483), wk =   0.2500000
        k(    3) = (   0.0000003  -0.6049959   0.0000008), wk =   0.2500000
        k(    4) = (  -0.0000001  -0.6049952  -0.5422475), wk =   0.2500000
        k(    5) = (   0.5239417  -0.3024982   0.0000008), wk =   0.2500000
        k(    6) = (  -0.5239414  -0.3024977   0.0000000), wk =   0.2500000
        k(    7) = (   0.5239413  -0.3024975  -0.5422475), wk =   0.2500000
        k(    8) = (  -0.5239418  -0.3024970  -0.5422483), wk =   0.2500000

     Dense  grid:   313299 G-vectors     FFT dimensions: (  90,  90,  90)

     Largest allocated arrays     est. size (Mb)     dimensions
        Kohn-Sham Wavefunctions         0.45 Mb     (     620,   48)
        NL pseudopotentials             5.20 Mb     (     620,  550)
        Each V/rho on FFT grid          0.25 Mb     (   16200)
        Each G-vector array             0.04 Mb     (    4897)
        G-vector shells                 0.04 Mb     (    4708)
     Largest temporary arrays     est. size (Mb)     dimensions
        Auxiliary wavefunctions         1.82 Mb     (     620,  192)
        Each subspace H/S matrix        0.02 Mb     (      38,   38)
        Each <psi_i|beta_j> matrix      0.40 Mb     (     550,   48)
        Arrays for rho mixing           1.98 Mb     (   16200,    8)

     Initial potential from superposition of free atoms

     starting charge   79.98824, renormalised to   80.00000
     Starting wfc are  800 randomized atomic wfcs

     Writing output data file mgli.save

     total cpu time spent up to now is     3906.5 secs

     per-process dynamical memory:    57.8 Mb

     Self-consistent Calculation

     iteration #  1     ecut=    80.00 Ry     beta=0.80
     Davidson diagonalization with overlap
     ethr =  1.00E-06,  avg # of iterations = 12.4

     total cpu time spent up to now is     3930.5 secs

     total energy              =    -168.69289148 Ry
     Harris-Foulkes estimate   =    -172.45453964 Ry
     estimated scf accuracy    <       5.65961428 Ry

     iteration #  2     ecut=    80.00 Ry     beta=0.80
     Davidson diagonalization with overlap
     ethr =  7.07E-03,  avg # of iterations =  2.0

     total cpu time spent up to now is     3939.1 secs

     total energy              =    -169.65364507 Ry
     Harris-Foulkes estimate   =    -171.55918606 Ry
     estimated scf accuracy    <       3.44593656 Ry

     iteration #  3     ecut=    80.00 Ry     beta=0.80
     Davidson diagonalization with overlap
     ethr =  4.31E-03,  avg # of iterations =  2.0

     total cpu time spent up to now is     3947.4 secs

     total energy              =    -170.41561013 Ry
     Harris-Foulkes estimate   =    -170.49240486 Ry
     estimated scf accuracy    <       0.13086420 Ry

     iteration #  4     ecut=    80.00 Ry     beta=0.80
     Davidson diagonalization with overlap
     ethr =  1.64E-04,  avg # of iterations =  3.9

     total cpu time spent up to now is     3957.5 secs

     total energy              =    -170.45498708 Ry
     Harris-Foulkes estimate   =    -170.47141680 Ry
     estimated scf accuracy    <       0.03203620 Ry

     iteration #  5     ecut=    80.00 Ry     beta=0.80
     Davidson diagonalization with overlap
     ethr =  4.00E-05,  avg # of iterations =  4.4

     total cpu time spent up to now is     3967.5 secs

     total energy              =    -170.46113751 Ry
     Harris-Foulkes estimate   =    -170.46123528 Ry
     estimated scf accuracy    <       0.00028662 Ry

     iteration #  6     ecut=    80.00 Ry     beta=0.80
     Davidson diagonalization with overlap
     ethr =  3.58E-07,  avg # of iterations =  4.0

     total cpu time spent up to now is     3978.4 secs

     total energy              =    -170.46128229 Ry
     Harris-Foulkes estimate   =    -170.46134796 Ry
     estimated scf accuracy    <       0.00013738 Ry

     iteration #  7     ecut=    80.00 Ry     beta=0.80
     Davidson diagonalization with overlap
     ethr =  1.72E-07,  avg # of iterations =  2.0

     total cpu time spent up to now is     3986.1 secs

     total energy              =    -170.46130489 Ry
     Harris-Foulkes estimate   =    -170.46130803 Ry
     estimated scf accuracy    <       0.00000931 Ry

     iteration #  8     ecut=    80.00 Ry     beta=0.80
     Davidson diagonalization with overlap
     ethr =  1.16E-08,  avg # of iterations =  2.0

     total cpu time spent up to now is     3994.0 secs

     total energy              =    -170.46130640 Ry
     Harris-Foulkes estimate   =    -170.46130643 Ry
     estimated scf accuracy    <       0.00000048 Ry

     iteration #  9     ecut=    80.00 Ry     beta=0.80
     Davidson diagonalization with overlap
     ethr =  6.05E-10,  avg # of iterations =  2.9

     total cpu time spent up to now is     4003.4 secs

     total energy              =    -170.46130658 Ry
     Harris-Foulkes estimate   =    -170.46130660 Ry
     estimated scf accuracy    <       0.00000006 Ry

     iteration # 10     ecut=    80.00 Ry     beta=0.80
     Davidson diagonalization with overlap
     ethr =  7.60E-11,  avg # of iterations =  2.0

     total cpu time spent up to now is     4011.4 secs

     total energy              =    -170.46130659 Ry
     Harris-Foulkes estimate   =    -170.46130659 Ry
     estimated scf accuracy    <          1.8E-09 Ry

     iteration # 11     ecut=    80.00 Ry     beta=0.80
     Davidson diagonalization with overlap
     ethr =  2.20E-12,  avg # of iterations =  2.1

     total cpu time spent up to now is     4019.9 secs

     End of self-consistent calculation

          k = 0.0000 0.0000 0.0000 ( 39247 PWs)   bands (ev):

   -18.2988 -18.2860 -18.2112 -18.2016  -9.1755  -8.9479  -8.8087  -8.8087
    -8.7354  -8.7354  -8.3327  -8.3327  -8.3098  -8.3098  -8.0171  -8.0171
    -7.9776  -7.9776  -5.4976  -5.2211  -4.6753  -4.3223  -4.3223  -4.2513
    -4.1331  -4.1331  -4.0396  -3.9115  -3.8294  -3.8294  -3.5064  -3.0584
    -2.9926  -2.9926  -2.9702  -2.9702  -2.9331  -2.8280  -2.7831  -2.7831
     2.9613   3.1424   3.9694   4.5834   4.5834   4.6663   4.6663   5.2122

          k =-0.0000 0.0000-0.5422 ( 39212 PWs)   bands (ev):

   -18.2765 -18.2765 -18.2228 -18.2228  -9.0616  -9.0616  -8.7261  -8.7261
    -8.7261  -8.7261  -8.4160  -8.4160  -8.4160  -8.4160  -7.9513  -7.9513
    -7.9513  -7.9513  -5.3324  -5.3324  -4.5774  -4.5774  -4.2745  -4.2745
    -4.2745  -4.2745  -3.8071  -3.8071  -3.4153  -3.4152  -3.4152  -3.4152
    -3.3961  -3.3961  -2.8812  -2.8812  -2.8227  -2.8227  -2.8227  -2.8227
     3.0458   3.0458   4.7889   4.7890   4.7890   4.7890   4.8865   4.8865

          k = 0.0000-0.6050 0.0000 ( 39156 PWs)   bands (ev):

   -18.2945 -18.2903 -18.2080 -18.2048  -9.1415  -8.9608  -8.9084  -8.7669
    -8.6870  -8.6276  -8.3489  -8.3434  -8.3030  -8.2939  -8.1466  -8.0946
    -8.0348  -7.9694  -5.1774  -5.0279  -4.5225  -4.4930  -4.3092  -4.2075
    -4.1391  -4.1182  -4.0161  -3.8241  -3.7352  -3.5906  -3.5051  -3.3586
    -3.2810  -3.1321  -3.1257  -3.0476  -2.9949  -2.9469  -2.8882  -2.7652
     3.4211   3.5946   4.5177   4.5405   4.5439   4.5676   4.9448   5.3775

          k =-0.0000-0.6050-0.5422 ( 39124 PWs)   bands (ev):

   -18.2760 -18.2760 -18.2233 -18.2233  -8.9706  -8.9706  -8.8240  -8.8240
    -8.7532  -8.7532  -8.3911  -8.3911  -8.3706  -8.3706  -8.0574  -8.0574
    -7.9481  -7.9481  -4.9782  -4.9782  -4.6333  -4.6332  -4.3012  -4.3012
    -4.0778  -4.0778  -3.9440  -3.9440  -3.5861  -3.5861  -3.5124  -3.5124
    -3.2809  -3.2809  -3.0029  -3.0029  -2.9707  -2.9707  -2.8294  -2.8294
     3.5953   3.5953   4.4219   4.4219   4.7243   4.7243   5.3725   5.3725

          k = 0.5239-0.3025 0.0000 ( 39156 PWs)   bands (ev):

   -18.2945 -18.2903 -18.2080 -18.2048  -9.1415  -8.9608  -8.9084  -8.7669
    -8.6870  -8.6276  -8.3489  -8.3434  -8.3030  -8.2939  -8.1466  -8.0946
    -8.0348  -7.9694  -5.1774  -5.0279  -4.5225  -4.4930  -4.3092  -4.2075
    -4.1391  -4.1182  -4.0161  -3.8241  -3.7352  -3.5906  -3.5051  -3.3586
    -3.2810  -3.1321  -3.1257  -3.0476  -2.9949  -2.9469  -2.8882  -2.7652
     3.4211   3.5946   4.5177   4.5405   4.5439   4.5676   4.9448   5.3779

          k =-0.5239-0.3025 0.0000 ( 39156 PWs)   bands (ev):

   -18.2945 -18.2903 -18.2080 -18.2048  -9.1415  -8.9608  -8.9084  -8.7669
    -8.6870  -8.6276  -8.3489  -8.3434  -8.3030  -8.2939  -8.1466  -8.0946
    -8.0348  -7.9694  -5.1774  -5.0279  -4.5225  -4.4930  -4.3092  -4.2075
    -4.1391  -4.1182  -4.0161  -3.8241  -3.7352  -3.5906  -3.5051  -3.3586
    -3.2810  -3.1321  -3.1257  -3.0476  -2.9949  -2.9469  -2.8882  -2.7652
     3.4211   3.5946   4.5177   4.5405   4.5439   4.5675   4.9448   5.3778

          k = 0.5239-0.3025-0.5422 ( 39124 PWs)   bands (ev):

   -18.2760 -18.2760 -18.2233 -18.2233  -8.9706  -8.9706  -8.8240  -8.8240
    -8.7532  -8.7532  -8.3911  -8.3911  -8.3706  -8.3706  -8.0574  -8.0574
    -7.9481  -7.9481  -4.9782  -4.9782  -4.6333  -4.6332  -4.3012  -4.3012
    -4.0778  -4.0778  -3.9440  -3.9440  -3.5861  -3.5861  -3.5124  -3.5124
    -3.2809  -3.2809  -3.0029  -3.0029  -2.9707  -2.9707  -2.8294  -2.8294
     3.5953   3.5953   4.4219   4.4219   4.7243   4.7243   5.3725   5.3725

          k =-0.5239-0.3025-0.5422 ( 39124 PWs)   bands (ev):

   -18.2760 -18.2760 -18.2233 -18.2233  -8.9706  -8.9706  -8.8240  -8.8240
    -8.7532  -8.7532  -8.3911  -8.3911  -8.3706  -8.3706  -8.0574  -8.0574
    -7.9481  -7.9481  -4.9782  -4.9781  -4.6333  -4.6332  -4.3012  -4.3012
    -4.0778  -4.0778  -3.9440  -3.9440  -3.5861  -3.5861  -3.5125  -3.5124
    -3.2809  -3.2809  -3.0029  -3.0029  -2.9707  -2.9707  -2.8294  -2.8294
     3.5953   3.5953   4.4219   4.4219   4.7243   4.7244   5.3725   5.3725

     the Fermi energy is    -0.4732 ev

!    total energy              =    -170.46130659 Ry
     Harris-Foulkes estimate   =    -170.46130659 Ry
     estimated scf accuracy    <          7.9E-11 Ry

     The total energy is the sum of the following terms:

     one-electron contribution =    -105.29219480 Ry
     hartree contribution      =      72.95327612 Ry
     xc contribution           =     -71.62853050 Ry
     ewald contribution        =     -66.49385740 Ry
     smearing contrib. (-TS)   =      -0.00000000 Ry

     convergence has been achieved in  11 iterations

     Forces acting on atoms (Ry/au):

     atom    1 type  1   force =    -0.00000014   -0.00000022   -0.00000001
     atom    2 type  1   force =    -0.00000019   -0.00000014    0.00000001
     atom    3 type  2   force =    -0.00000021   -0.00001574   -0.00000006
     atom    4 type  2   force =     0.00001341   -0.00000803   -0.00000001
     atom    5 type  2   force =     0.00001337    0.00000797   -0.00000000
     atom    6 type  2   force =    -0.00000028    0.00001570    0.00000001
     atom    7 type  2   force =    -0.00001353    0.00000782    0.00000006
     atom    8 type  2   force =    -0.00001359   -0.00000781    0.00000000
     atom    9 type  3   force =    -0.00000031    0.00000476   -0.00001405
     atom   10 type  3   force =    -0.00000469    0.00000221   -0.00001355
     atom   11 type  3   force =    -0.00000442   -0.00000318   -0.00001341
     atom   12 type  3   force =     0.00000073   -0.00000494   -0.00001397
     atom   13 type  3   force =     0.00000448   -0.00000167   -0.00001396
     atom   14 type  3   force =     0.00000390    0.00000281   -0.00001389
     atom   15 type  3   force =    -0.00000026   -0.00000486    0.00001384
     atom   16 type  3   force =     0.00000392   -0.00000268    0.00001400
     atom   17 type  3   force =     0.00000455    0.00000167    0.00001388
     atom   18 type  3   force =     0.00000085    0.00000475    0.00001401
     atom   19 type  3   force =    -0.00000426    0.00000310    0.00001367
     atom   20 type  3   force =    -0.00000491   -0.00000233    0.00001341
     atom   21 type  3   force =    -0.00001257    0.00001899   -0.00000066
     atom   22 type  3   force =    -0.00002286   -0.00000144   -0.00000070
     atom   23 type  3   force =    -0.00000990   -0.00002023   -0.00000054
     atom   24 type  3   force =     0.00001228   -0.00001875   -0.00000051
     atom   25 type  3   force =     0.00002250    0.00000087   -0.00000061
     atom   26 type  3   force =     0.00001028    0.00001998   -0.00000060
     atom   27 type  3   force =    -0.00001259   -0.00001922    0.00000070
     atom   28 type  3   force =     0.00001051   -0.00002003    0.00000066
     atom   29 type  3   force =     0.00002230   -0.00000108    0.00000060
     atom   30 type  3   force =     0.00001246    0.00001881    0.00000061
     atom   31 type  3   force =    -0.00000999    0.00002015    0.00000051
     atom   32 type  3   force =    -0.00002258    0.00000150    0.00000054
     atom   33 type  3   force =    -0.00000035    0.00018732   -0.00007532
     atom   34 type  3   force =    -0.00016277    0.00009403   -0.00007475
     atom   35 type  3   force =    -0.00016204   -0.00009355   -0.00007415
     atom   36 type  3   force =    -0.00000049   -0.00018718   -0.00007481
     atom   37 type  3   force =     0.00016367   -0.00009477   -0.00007551
     atom   38 type  3   force =     0.00016284    0.00009475   -0.00007556
     atom   39 type  3   force =     0.00000003   -0.00018824    0.00007489
     atom   40 type  3   force =     0.00016187   -0.00009386    0.00007526
     atom   41 type  3   force =     0.00016351    0.00009373    0.00007560
     atom   42 type  3   force =    -0.00000023    0.00018934    0.00007558
     atom   43 type  3   force =    -0.00016204    0.00009303    0.00007464
     atom   44 type  3   force =    -0.00016199   -0.00009355    0.00007413
     atom   45 type  4   force =     0.00000106   -0.00000174    0.00047493
     atom   46 type  4   force =    -0.00000067    0.00000181    0.00047495
     atom   47 type  4   force =     0.00000141   -0.00000188   -0.00047492
     atom   48 type  4   force =    -0.00000130    0.00000210   -0.00047493
     atom   49 type  5   force =    -0.00000070   -0.00000015    0.00000000
     atom   50 type  5   force =    -0.00000004    0.00000009   -0.00000000

     Total force =     0.001185     Total SCF correction =     0.000016


     entering subroutine stress ...

          total   stress  (Ry/bohr**3)                   (kbar)     P=    0.18
   0.00000124  -0.00000000   0.00000000          0.18     -0.00      0.00
  -0.00000000   0.00000124  -0.00000000         -0.00      0.18     -0.00
   0.00000000  -0.00000000   0.00000120          0.00     -0.00      0.18


     Writing output data file mgli.save
 
     init_run     :     88.01s CPU     90.15s WALL (       2 calls)
     electrons    :   3219.02s CPU   3256.59s WALL (      38 calls)
     update_pot   :     35.65s CPU     36.89s WALL (      36 calls)
     forces       :     81.92s CPU     83.41s WALL (      38 calls)
     stress       :    552.31s CPU    557.81s WALL (      38 calls)

     Called by init_run:
     wfcinit      :     86.29s CPU     88.36s WALL (       2 calls)
     potinit      :      0.64s CPU      0.64s WALL (       2 calls)

     Called by electrons:
     c_bands      :   2860.51s CPU   2892.81s WALL (     354 calls)
     sum_band     :    334.22s CPU    337.32s WALL (     354 calls)
     v_of_rho     :     17.29s CPU     17.42s WALL (     378 calls)
     mix_rho      :      5.07s CPU      5.10s WALL (     354 calls)

     Called by c_bands:
     init_us_2    :     75.17s CPU     77.15s WALL (    6288 calls)
     cegterg      :   2727.99s CPU   2753.89s WALL (    2832 calls)

     Called by sum_band:

     Called by *egterg:
     h_psi        :   2156.31s CPU   2178.73s WALL (    9923 calls)
     g_psi        :      2.09s CPU      2.03s WALL (    7075 calls)
     cdiaghg      :    322.56s CPU    325.26s WALL (    9507 calls)

     Called by h_psi:
     add_vuspsi   :    211.20s CPU    212.84s WALL (    9923 calls)

     General routines
     calbec       :    331.18s CPU    340.22s WALL (   11443 calls)
     fft          :     24.14s CPU     24.39s WALL (    5134 calls)
     fftw         :   1915.93s CPU   1931.39s WALL (  917380 calls)
 
     Parallel routines
     fft_scatter  :   1580.67s CPU   1593.55s WALL (  922514 calls)
 
     PWSCF        :     1h 6m CPU        1h 7m WALL

 
   This run was terminated on:  16:31:27  27Jun2019            

=------------------------------------------------------------------------------=
   JOB DONE.
=------------------------------------------------------------------------------=
